/*--------------------------------*- C++ -*----------------------------------*\
| =========                 |                                                 |
| \\      /  F ield         | OpenFOAM: The Open Source CFD Toolbox           |
|  \\    /   O peration     | Version:  v1806                                 |
|   \\  /    A nd           | Web:      www.OpenFOAM.com                      |
|    \\/     M anipulation  |                                                 |
\*---------------------------------------------------------------------------*/
FoamFile
{
    version     2.0;
    format      ascii;
    class       volScalarField;
    location    "100";
    object      mag(U);
}
// * * * * * * * * * * * * * * * * * * * * * * * * * * * * * * * * * * * * * //

dimensions      [0 1 -1 0 0 0 0];


internalField   nonuniform List<scalar> 
10720
(
56.0093
56.5759
56.4048
54.7559
51.78
47.1208
40.5262
32.1638
22.4574
12.4151
3.55283
3.10004
5.47701
6.31133
6.383
6.23817
5.84942
5.42449
5.39072
6.10294
7.55929
9.16605
10.7629
12.6671
15.2155
18.4665
22.1303
25.4747
27.4573
27.018
24.0956
18.9528
13.102
7.3784
2.61433
1.99441
5.5937
11.2119
8.96403
55.0632
53.5405
51.4633
48.3005
44.5763
40.1683
35.1771
29.8579
24.5365
19.4151
14.5912
10.1622
6.20202
2.89909
1.22061
3.37888
5.98411
8.43834
10.7403
12.9226
15.0171
17.0502
19.037
20.9544
22.7494
24.4085
25.9563
27.4055
28.7735
30.0505
31.2364
32.3611
33.4344
34.473
35.4745
36.5054
37.3305
38.4827
37.0687
52.1111
53.7039
55.4489
57.0638
58.3204
59.0933
58.911
57.1555
52.9826
45.7446
35.5953
23.4337
11.7938
2.80637
1.89803
3.56307
4.62354
5.56551
6.66973
8.2011
9.93299
11.6177
13.2799
15.0822
17.1824
19.6254
22.1803
24.2956
25.2363
24.4195
21.1386
15.7361
9.53723
3.31762
2.03716
6.51589
10.1244
15.2976
14.8427
50.3374
48.3918
46.0645
43.2401
39.9093
36.088
31.8405
27.3368
22.7687
18.2769
13.9812
9.98033
6.39758
3.56585
2.56164
4.14332
6.44144
8.76295
11.0098
13.1764
15.2757
17.3258
19.3366
21.2897
23.1439
24.8819
26.5183
28.0618
29.5259
30.9014
32.1847
33.4036
34.5669
35.691
36.7722
37.878
38.7746
40.0453
38.9526
47.788
48.9963
50.0377
50.9026
51.6623
52.5673
53.7831
55.2477
56.4695
56.2475
53.0635
45.7728
34.7138
21.8825
10.4565
2.97931
1.19695
3.53118
5.50295
7.21752
8.76155
10.1658
11.5472
13.0071
14.7088
16.8372
19.3054
21.5763
22.7663
21.9601
18.6246
13.1836
6.96496
1.33437
4.9107
9.40561
13.1706
18.2579
18.706
46.3721
44.6799
42.5098
39.9052
36.9095
33.4947
29.7266
25.7512
21.7087
17.7022
13.8445
10.2563
7.11473
4.81347
4.07189
5.14535
7.05766
9.17241
11.3015
13.3953
15.4461
17.4599
19.4409
21.3724
23.2192
24.9629
26.6138
28.1807
29.6783
31.0988
32.4392
33.7262
34.9689
36.1818
37.3595
38.5637
39.5744
40.899
40.1831
45.1939
46.5803
47.9027
49.0679
50
50.6928
51.2313
51.8475
52.8916
54.4235
55.6686
54.8487
49.9657
40.3306
27.4941
15.0052
6.01764
1.45944
3.46125
5.49533
6.91016
8.09977
9.33125
10.7099
12.3725
14.5399
17.1413
19.5665
20.8448
20.0268
16.6909
11.308
5.22702
2.4231
7.01665
11.4723
15.3271
20.3787
21.3623
43.7132
42.0553
40.0422
37.6327
34.8781
31.76
28.3328
24.7345
21.0889
17.4812
14.0174
10.8337
8.1273
6.23655
5.58311
6.27772
7.8041
9.66865
11.642
13.6359
15.619
17.5833
19.5254
21.4278
23.2575
24.994
26.6432
28.2123
29.7149
31.1442
32.4969
33.7989
35.0604
36.2968
37.5036
38.7414
39.8026
41.1592
40.751
43.0531
44.3862
45.7002
46.8912
47.9104
48.7831
49.4845
50.0226
50.5299
51.32
52.7263
54.4503
54.8184
51.3422
42.5655
29.8386
16.9163
7.21992
2.52055
3.68292
5.04691
6.08383
7.24409
8.67498
10.422
12.673
15.3708
17.8887
19.2298
18.4375
15.1583
9.93958
4.27632
3.9479
8.56513
12.9523
16.8557
21.9048
23.29
41.6285
40.0486
38.1322
35.8623
33.3151
30.4531
27.3242
24.0578
20.7662
17.5213
14.4243
11.6155
9.28357
7.67707
7.05169
7.47324
8.66069
10.2616
12.0526
13.9217
15.8177
17.7182
19.6114
21.4769
23.2829
25.0066
26.6494
28.2164
29.7194
31.1521
32.5105
33.8189
35.0878
36.3324
37.5484
38.7949
39.8738
41.2362
41.0182
41.4449
42.7756
44.1151
45.3575
46.4664
47.4595
48.3099
49.0055
49.5441
49.9738
50.5368
51.6962
53.4732
54.3422
51.4167
42.8391
29.9958
16.9128
7.32221
3.25799
3.42775
4.23245
5.34247
6.87245
8.73334
11.0494
13.8062
16.3996
17.8176
17.0876
13.9165
8.96852
4.08048
5.23081
9.70088
13.9842
17.9104
22.9756
24.7302
40.0515
38.535
36.7206
34.5782
32.1992
29.5452
26.6593
23.6679
20.678
17.7516
14.9836
12.5084
10.4856
9.08375
8.46887
8.6895
9.59262
10.9383
12.5342
14.2611
16.0539
17.8777
19.7123
21.5337
23.3098
25.0156
26.6481
28.2097
29.7105
31.1447
32.5073
33.8203
35.0947
36.3452
37.5671
38.818
39.9091
41.2726
41.2047
40.152
41.4493
42.7804
44.0348
45.1691
46.2209
47.1548
47.9672
48.6648
49.2231
49.6315
50.0722
51.073
52.8614
53.8582
50.8406
41.8785
28.7393
15.8361
7.09097
3.40586
2.87071
3.73127
5.31359
7.25107
9.58073
12.3523
15.0065
16.5159
15.8851
12.8809
8.32261
4.44661
6.29778
10.5302
14.6784
18.6131
23.7022
25.816
38.8045
37.355
35.6296
33.6024
31.3765
28.9069
26.2355
23.487
20.7631
18.1186
15.6418
13.4571
11.6838
10.4369
9.82966
9.90223
10.5728
11.6844
13.0835
14.6575
16.3341
18.0697
19.8363
21.6061
23.3458
25.028
26.6455
28.1984
29.6943
31.128
32.4929
33.8093
35.088
36.3432
37.57
38.824
39.9267
41.2904
41.361
39.1342
40.4023
41.716
42.9669
44.1104
45.1946
46.1766
47.0486
47.8226
48.4978
49.0486
49.43
49.7923
50.7536
52.594
53.4437
49.8044
40.0759
26.6956
14.4977
6.83106
3.4811
3.0115
4.2245
6.03655
8.24599
10.9447
13.6239
15.2323
14.7444
11.9853
7.95336
5.12764
7.2087
11.1413
15.1314
19.0665
24.1797
26.6353
37.831
36.4445
34.8026
32.8812
30.7896
28.4825
26.0002
23.4651
20.9752
18.5791
16.3585
14.4228
12.853
11.729
11.1318
11.0953
11.5789
12.483
13.6925
15.109
16.6605
18.2981
19.9881
21.6993
23.3962
25.0494
26.6475
28.1881
29.6764
31.1071
32.4729
33.7913
35.0733
36.3322
37.5633
38.8197
39.9341
41.2978
41.5014
38.3175
39.546
40.8343
42.0696
43.2078
44.3024
45.3093
46.2173
47.0378
47.7696
48.4183
48.9545
49.301
49.6325
50.6833
52.5949
52.9981
48.3221
37.6845
24.4038
13.3058
6.8047
4.22941
4.16868
5.33315
7.11256
9.55436
12.1775
13.8784
13.5839
11.1762
7.82468
5.96288
8.02132
11.61
15.4233
19.3519
24.4815
27.2546
37.061
35.734
34.1715
32.3475
30.3796
28.219
25.9064
23.5618
21.2792
19.1022
17.1066
15.3816
13.9802
12.9579
12.3749
12.2591
12.5941
13.3187
14.3514
15.6115
17.0328
18.565
20.1711
21.8166
23.4646
25.0831
26.6574
28.1818
29.6596
31.085
32.4498
33.7689
35.0531
36.3151
37.5497
38.8079
39.9344
41.2977
41.63
37.6629
38.8538
40.1113
41.3236
42.448
43.5366
44.5546
45.4825
46.3312
47.0965
47.7852
48.4072
48.9171
49.2202
49.583
50.8376
52.7407
52.3355
46.3105
34.8953
22.1152
12.3822
7.24348
5.51755
5.52832
6.39487
8.2172
10.6096
12.3642
12.3188
10.4058
7.90205
6.87734
8.78272
11.9973
15.6182
19.531
24.6622
27.7225
36.4525
35.1845
33.6954
31.9633
30.1075
28.0806
25.9213
23.7474
21.6489
19.666
17.8668
16.3199
15.0597
14.1251
13.5598
13.388
13.6056
14.1779
15.0498
16.1593
17.449
18.8708
20.3867
21.9606
23.5537
25.132
26.6777
28.1824
29.6466
31.0642
32.426
33.7444
35.0297
36.2938
37.5317
38.7914
39.9304
41.2942
41.7505
37.1374
38.288
39.5112
40.6951
41.7995
42.8766
43.8938
44.8284
45.6927
46.4809
47.1957
47.8472
48.4429
48.9165
49.1791
49.6577
51.1785
52.8389
51.1999
43.6992
31.7727
19.8812
11.821
8.08342
6.79347
6.45125
7.10823
8.90939
10.6063
10.8585
9.63332
8.15746
7.84135
9.52984
12.3516
15.7653
19.6486
24.7597
28.0723
35.9731
34.7606
33.3417
31.6952
29.9439
28.0389
26.0192
23.9991
22.0652
20.2544
18.6259
17.2308
16.0906
15.2327
14.6889
14.4785
14.6043
15.0491
15.7779
16.7457
17.9056
19.2146
20.6358
22.1327
23.6654
25.1982
26.7106
28.1916
29.639
31.046
32.4028
33.7191
35.0042
36.2696
37.5101
38.771
39.9229
41.2875
41.8628
36.7174
37.8265
39.0132
40.167
41.2473
42.3061
43.313
44.2462
45.1159
45.9167
46.651
47.3227
47.9406
48.512
48.9368
49.1803
49.8725
51.6015
52.6144
49.3715
40.4086
28.3545
17.8804
11.7551
9.01247
7.50911
6.63125
7.18206
8.5384
9.105
8.83438
8.56965
8.84779
10.2889
12.7092
15.9014
19.7365
24.801
28.3269
35.5982
34.438
33.0854
31.52
29.865
28.0726
26.1807
24.2996
22.5133
20.856
19.3746
18.1097
17.0738
16.2843
15.7643
15.5286
15.5838
15.923
16.5265
17.3636
18.3985
19.5946
20.9182
22.3338
23.8012
25.2835
26.7579
28.2113
29.6385
31.0322
32.3817
33.6941
34.9778
36.2435
37.4861
38.748
39.9131
41.2797
41.968
36.382
37.4508
38.6001
39.721
40.7738
41.813
42.8014
43.7267
44.5948
45.3997
46.1443
46.8329
47.4642
48.0562
48.6014
48.9628
49.2371
50.2089
51.9167
51.8119
46.6844
36.466
24.9547
16.5344
12.0728
9.49638
7.25564
5.84479
6.16052
6.97198
8.03541
9.13253
9.90064
11.0792
13.0965
16.0522
19.8163
24.8039
28.5021
35.3067
34.1975
32.9076
31.4184
29.8536
28.1652
26.3902
24.6358
22.9828
21.4614
20.1086
18.9564
18.0113
17.2835
16.7887
16.5381
16.5393
16.7922
17.2875
18.0063
18.9229
20.0081
21.2329
22.5641
23.9621
25.3892
26.8212
28.2429
29.6466
31.0239
32.3636
33.6703
34.9511
36.2159
37.46
38.7225
39.901
41.2698
42.0656
36.1164
37.1451
38.2569
39.3448
40.3687
41.3841
42.352
43.2658
44.1259
44.9281
45.6754
46.3725
47.018
47.6146
48.1876
48.6936
48.983
49.3587
50.5903
51.9272
50.221
43.1008
32.2418
22.271
15.9726
12.2477
9.04713
5.7873
3.73916
4.45015
7.38775
9.86383
11.0099
11.9143
13.5292
16.2345
19.9022
24.7816
28.6084
35.0843
34.0234
32.7933
31.3764
29.8955
28.3036
26.6366
24.9976
23.4653
22.0639
20.8238
19.7704
18.9054
18.2337
17.765
17.5075
17.4681
17.6511
18.0539
18.667
19.4735
20.4519
21.5783
22.8233
24.1484
25.5165
26.9018
28.2879
29.6645
31.0223
32.3498
33.6489
34.9252
36.1879
37.4326
38.6955
39.8873
41.2597
42.1557
35.9089
36.8984
37.9729
39.0267
40.0208
41.0116
41.9565
42.8532
43.7018
44.4966
45.2414
45.9403
46.5939
47.2007
47.769
48.3254
48.7657
48.9897
49.5418
50.9434
51.4477
47.7
38.91
28.5794
20.697
15.699
11.7316
7.49984
2.99534
2.17582
7.27057
10.8125
12.1912
12.8027
14.015
16.458
20.0032
24.7429
28.6549
34.9182
33.904
32.7308
31.3821
29.9801
28.4777
26.9103
25.3771
23.9542
22.6596
21.519
20.5526
19.7591
19.1383
18.6962
18.4373
18.3685
18.4952
18.82
19.3397
20.0453
20.9222
21.9522
23.1103
24.3604
25.6659
27.0007
28.3473
29.6935
31.0287
32.3412
33.6304
34.9006
36.1597
37.4042
38.6669
39.8718
41.2475
42.238
35.7493
36.7008
37.7384
38.7587
39.7225
40.6857
41.6076
42.4829
43.3164
44.0997
44.8377
45.5342
46.1889
46.8046
47.3748
47.9229
48.4539
48.7892
48.9839
49.8274
51.1932
50.2577
44.3472
34.9368
26.1225
19.8568
15.1178
10.4503
5.62142
3.63161
8.16039
12.0535
13.4651
13.7458
14.5556
16.7266
20.1254
24.6965
28.6482
34.7992
33.8294
32.7103
31.4266
30.0982
28.6794
27.2042
25.7683
24.4443
23.2455
22.1933
21.3045
20.5749
20.0008
19.585
19.3293
19.2394
19.3214
19.5808
20.0191
20.6334
21.4151
22.3522
23.4238
24.5975
25.8378
27.1189
28.4223
29.7347
31.0442
32.3388
33.6159
34.8782
36.1324
37.3755
38.6375
39.855
41.2352
42.3116
35.6303
36.5449
37.5461
38.5323
39.4658
40.4017
41.2989
42.1502
42.9671
43.7358
44.4627
45.1524
45.8033
46.4203
46.9988
47.5352
48.0736
48.5461
48.7341
49.0469
50.2989
51.1419
48.2314
40.8069
31.9885
24.7158
19.1599
14.1775
9.4995
7.34449
10.2097
13.6733
14.8555
14.7406
15.1474
17.0403
20.2727
24.6491
28.5977
34.719
33.792
32.7244
31.502
30.243
28.9023
27.5126
26.1666
24.9319
23.8194
22.8463
22.0274
21.3552
20.8242
20.434
20.1848
20.0804
20.1275
20.3326
20.7006
21.233
21.9268
22.775
23.7621
24.8589
26.0321
27.2566
28.5138
29.789
31.0697
32.3435
33.6061
34.8584
36.106
37.3466
38.6071
39.8365
41.2205
42.3765
35.5449
36.4237
37.3893
38.3425
39.2453
40.1525
41.025
41.852
42.6504
43.4022
44.115
44.7942
45.4378
46.0493
46.6312
47.1691
47.6837
48.2129
48.5511
48.6429
49.3739
50.8955
50.5004
45.7168
37.9153
30.1855
23.8735
18.5319
13.9302
11.6285
13.1955
15.7356
16.3861
15.7832
15.7825
17.3972
20.4476
24.6091
28.5147
34.6713
33.7852
32.7667
31.6025
30.4087
29.1411
27.831
26.5682
25.4144
24.3802
23.4787
22.7226
22.1024
21.611
21.2458
21.0053
20.8919
20.9119
21.0722
21.38
21.8398
22.4532
23.2178
24.123
25.1435
26.2486
27.4142
28.6223
29.8574
31.1062
32.3565
33.6021
34.8423
36.0817
37.3184
38.5766
39.8168
41.2052
42.4313
35.4881
36.3321
37.2628
38.1827
39.0555
39.9346
40.781
41.583
42.3613
43.0947
43.7916
44.4578
45.0914
45.694
46.2707
46.8139
47.313
47.8297
48.3002
48.4472
48.7159
50.085
51.3013
49.2835
43.4195
36.0337
29.2432
23.5065
18.8356
16.3052
16.8397
18.2525
18.0779
16.8689
16.4512
17.7924
20.6515
24.5838
28.4136
34.6505
33.8037
32.832
31.7231
30.5909
29.3918
28.156
26.9699
25.8908
24.9274
24.091
23.3915
22.8189
22.3638
22.0228
21.7924
21.6744
21.6736
21.7976
22.0541
22.4502
22.9907
23.6774
24.5041
25.4497
26.4864
27.5917
28.7482
29.9404
31.1546
32.3783
33.6042
34.8303
36.0596
37.2909
38.5458
39.7952
41.1868
42.4764
35.4548
36.2653
37.162
38.0496
38.8923
39.7427
40.5629
41.3406
42.0951
42.8089
43.4882
44.1393
44.7606
45.353
45.9194
46.4618
46.96
47.4434
47.9608
48.2743
48.3525
49.1898
50.9749
51.2578
47.9241
41.8178
35.1071
29.0819
24.2211
21.334
20.9244
21.1606
19.9341
17.9906
17.1409
18.219
20.8849
24.582
28.3087
34.6525
33.8432
32.9163
31.86
30.7856
29.6511
28.4848
27.3696
26.3593
25.4608
24.6835
24.0357
23.5064
23.0849
22.767
22.5479
22.4283
22.4122
22.5067
22.7199
23.0606
23.5357
24.1506
24.9029
25.7759
26.7446
27.7888
28.8919
30.0388
31.2157
32.41
33.6137
34.8234
36.0406
37.265
38.5154
39.7726
41.1673
42.5101
35.4418
36.2196
37.083
37.9386
38.7518
39.5743
40.3673
41.1203
41.8501
42.5436
43.2034
43.8371
44.4433
45.0236
45.578
46.1115
46.6126
47.0741
47.5708
48.0184
48.1519
48.5033
50.0274
51.6507
50.8481
46.8376
41.0142
35.0629
30.0128
26.6476
25.268
24.3261
21.9253
19.1365
17.8379
18.6678
21.1465
24.6119
28.2166
34.6732
33.9001
33.0159
32.0095
30.99
29.9161
28.8151
27.7657
26.8189
25.9801
25.2569
24.6565
24.1665
23.7765
23.4805
23.2734
23.1546
23.1276
23.1984
23.3754
23.668
24.085
24.6342
25.3169
26.1201
27.0221
28.0048
29.0532
30.1527
31.2899
32.4522
33.631
34.8218
36.0251
37.2407
38.4853
39.7482
41.1442
42.5337
35.4455
36.1918
37.0227
37.8472
38.6312
39.4251
40.1918
40.9203
41.6246
42.2973
42.9366
43.5512
44.1399
44.705
45.2457
45.7652
46.2627
46.7176
47.1721
47.6639
47.9519
48.0821
48.9876
50.8583
51.8801
50.268
46.1434
40.8934
35.884
32.0501
29.6509
27.5463
23.973
20.2849
18.5289
19.1272
21.4339
24.6815
28.1532
34.7097
33.9712
33.1279
32.1693
31.2014
30.1847
29.1452
28.1567
27.2689
26.4852
25.8118
25.2548
24.8013
24.4402
24.1652
23.9704
23.8544
23.8198
23.8718
24.0187
24.27
24.6356
25.1253
25.7434
26.4802
27.3173
28.2389
29.2319
30.2825
31.3778
32.5057
33.6571
34.8267
36.014
37.2189
38.4564
39.7229
41.1193
42.5451
35.4636
36.1792
36.9783
37.7721
38.5275
39.2939
40.0335
40.737
41.4165
42.068
42.6861
43.2804
43.8501
44.3973
44.9221
45.4248
45.9098
46.3621
46.7841
47.2484
47.6548
47.8043
48.1866
49.5568
51.276
51.589
49.5347
45.6415
41.1304
37.0575
33.7334
30.5534
25.9454
21.3992
19.1981
19.5841
21.7421
24.7972
28.1369
34.7592
34.054
33.2498
32.3367
31.418
30.4551
29.4736
28.5418
27.709
26.9761
26.349
25.8319
25.412
25.0778
24.8228
24.6404
24.5286
24.4889
24.5263
24.6483
24.8644
25.185
25.6212
26.1796
26.8539
27.6286
28.4902
29.4274
30.428
31.4797
32.5708
33.6924
34.8383
36.0074
37.1997
38.4282
39.6959
41.0902
42.546
35.4934
36.1794
36.9476
37.7116
38.4387
39.1771
39.8906
40.5694
41.2237
41.8528
42.4492
43.0227
43.5722
44.1
44.6066
45.0911
45.557
46.0004
46.4044
46.8157
47.2504
47.5103
47.6566
48.3452
49.7977
51.0085
50.6633
48.3922
44.8274
40.8929
36.9927
33.0005
27.6664
22.4281
19.8252
20.0247
22.0656
24.9636
28.1847
34.8196
34.1464
33.3797
32.51
31.6377
30.7258
29.7989
28.9206
28.1387
27.4533
26.8689
26.3888
26
25.691
25.4549
25.2848
25.1781
25.1357
25.1617
25.2632
25.4494
25.7308
26.1193
26.6232
27.239
27.9541
28.7573
29.6392
30.5891
31.5957
32.6482
33.7376
34.8577
36.0063
37.1839
38.4018
39.668
41.0588
42.5345
35.5335
36.1906
36.9287
37.6631
38.3627
39.0742
39.7609
40.4145
41.0447
41.6493
42.2237
42.7752
43.3039
43.8114
44.2981
44.7632
45.2073
45.6325
46.0233
46.3884
46.7817
47.1141
47.2456
47.4646
48.2453
49.3727
49.8612
48.8821
46.3933
42.9137
38.9179
34.5275
28.9494
23.3089
20.3869
20.4347
22.3956
25.18
28.3129
34.8889
34.2464
33.5157
32.6875
31.8594
30.9956
30.1201
29.2922
28.558
27.9168
27.3721
26.9264
26.5663
26.281
26.0629
25.9049
25.8041
25.7605
25.7779
25.8627
26.0235
26.271
26.6171
27.0716
27.6332
28.2919
29.0387
29.8662
30.7652
31.7258
32.738
33.7931
34.8849
36.0108
37.1715
38.3766
39.6386
41.0229
42.5128
35.5817
36.2111
36.9198
37.6257
38.298
38.9821
39.6431
40.2718
40.8775
41.4569
42.0087
42.5375
43.0439
43.53
43.9956
44.4399
44.8614
45.2621
45.6349
45.9674
46.2952
46.6201
46.802
46.8339
47.0332
47.5882
48.0663
47.6958
46.0224
43.103
39.3563
35.0233
29.665
23.9839
20.8613
20.7992
22.7218
25.4402
28.5297
34.9657
34.3526
33.6563
32.8679
32.0817
31.2635
30.4366
29.6563
28.967
28.367
27.8593
27.4454
27.1123
26.849
26.6479
26.5018
26.4072
26.3641
26.3751
26.4463
26.5857
26.8038
27.1126
27.5226
28.0343
28.64
29.3329
30.1074
30.9559
31.8699
32.8403
33.8594
34.9208
36.0219
37.1634
38.3538
39.6087
40.9843
42.4786
35.6372
36.2395
36.9196
37.5972
38.2429
38.9008
39.5356
40.1391
40.7211
41.2754
41.8047
42.3099
42.7932
43.2564
43.6992
44.1209
44.5189
44.8926
45.2401
45.546
45.8149
46.0776
46.2706
46.2747
46.1629
46.1469
46.1786
45.8044
44.5091
42.05
38.6201
34.6373
29.8139
24.4189
21.2306
21.1047
23.031
25.7316
28.8356
35.0484
34.4637
33.8004
33.0498
32.3038
31.5288
30.7477
30.0126
29.3654
28.804
28.3309
27.9467
27.6388
27.3961
27.211
27.0764
26.9886
26.9469
26.9536
27.0137
27.1353
27.328
27.6039
27.9739
28.4401
28.9965
29.6382
30.3613
31.16
32.0272
32.9551
33.9365
34.9656
36.0397
37.1596
38.3329
39.5775
40.9408
42.4348
35.6982
36.2745
36.9268
37.577
38.1965
38.8278
39.4375
40.0164
40.5741
41.1034
41.6101
42.0919
42.5514
42.9909
43.4098
43.8071
44.1803
44.526
44.8429
45.1203
45.3436
45.5302
45.6759
45.6784
45.4615
45.0957
44.6504
43.9664
42.6831
40.4772
37.3802
33.7887
29.5284
24.62
21.487
21.3414
23.3108
26.0406
29.2216
35.136
34.5785
33.9468
33.2327
32.5247
31.7909
31.0532
30.3608
29.7534
29.2282
28.7873
28.4309
28.1465
27.923
27.7533
27.6298
27.5489
27.5095
27.5134
27.5649
27.6715
27.8424
28.0895
28.4238
28.8486
29.3593
29.9528
30.6267
31.3768
32.1975
33.0822
34.0247
35.0197
36.0647
37.1609
38.3148
39.546
40.8947
42.379
35.7643
36.3152
36.9402
37.5634
38.1575
38.7634
39.3474
39.9017
40.4359
40.9406
41.4246
41.8827
42.3183
42.7338
43.128
43.4997
43.8465
44.1639
44.448
44.6923
44.8775
44.998
45.0662
45.033
44.7903
44.2798
43.5235
42.5056
41.0561
38.9205
36.0795
32.7957
28.9763
24.6294
21.6322
21.5033
23.5519
26.3592
29.6831
35.2274
34.6961
34.0947
33.4154
32.7439
32.0493
31.3527
30.7009
30.1309
29.6398
29.2292
28.8987
28.636
28.4309
28.2756
28.1629
28.0889
28.0526
28.0549
28.0998
28.1938
28.3461
28.568
28.8706
29.2578
29.7266
30.2749
30.9019
31.6049
32.3797
33.221
34.1236
35.0831
36.0971
37.1672
38.2991
39.5136
40.8437
42.3145
35.834
36.3606
36.9592
37.5564
38.1252
38.7053
39.265
39.7952
40.3054
40.7857
41.2468
41.6816
42.0933
42.4845
42.8538
43.1995
43.519
43.8075
44.0589
44.267
44.4153
44.4836
44.4745
44.3747
44.1052
43.5545
42.6605
41.4228
39.7912
37.6253
34.935
31.8962
28.3848
24.5182
21.6782
21.59
23.7501
26.6941
30.2285
35.3219
34.8157
34.2435
33.5975
32.9607
32.3036
31.6458
31.0326
30.498
30.039
29.6569
29.3507
29.1085
28.9203
28.7788
28.6764
28.6094
28.5765
28.5783
28.6181
28.702
28.8385
29.0383
29.3127
29.6662
30.0965
30.6027
31.1854
31.8431
32.5729
33.3711
34.2333
35.156
36.1374
37.1792
38.2868
39.4813
40.7901
42.2389
35.9072
36.4098
36.9827
37.5541
38.0986
38.6542
39.1889
39.6952
40.1821
40.6389
41.0757
41.4873
41.8753
42.2425
42.5872
42.907
43.1991
43.4586
43.6778
43.8495
43.96
43.9853
43.9131
43.7394
43.4228
42.8572
41.9291
40.5994
38.8528
36.6374
34.0381
31.1567
27.8456
24.3327
21.6371
21.6037
23.9063
27.0643
30.883
35.4187
34.9367
34.3924
33.7783
33.1748
32.5534
31.9323
31.3557
30.8547
30.4262
30.0708
29.7875
29.5645
29.3923
29.2637
29.1711
29.1109
29.0818
29.0839
29.12
29.1958
29.3187
29.4993
29.7487
30.0719
30.4672
30.9345
31.4754
32.0898
32.7761
33.5315
34.353
35.238
36.1851
37.1966
38.2774
39.4486
40.732
42.1559
35.9826
36.4624
37.0103
37.5569
38.0772
38.608
39.1193
39.6021
40.0653
40.499
40.9113
41.2998
41.6643
42.0076
42.3278
42.6223
42.8876
43.1185
43.3068
43.4436
43.5166
43.5034
43.3829
43.146
42.7732
42.1859
41.2623
39.9251
38.1414
35.9064
33.3679
30.5729
27.3944
24.1081
21.5247
21.5494
24.0235
27.4927
31.6672
35.5172
35.0585
34.541
33.9575
33.3856
32.7983
32.2122
31.6704
31.2012
30.8014
30.4714
30.2095
30.0046
29.8475
29.7309
29.6477
29.5942
29.5688
29.5719
29.6056
29.6746
29.7862
29.9502
30.1776
30.4735
30.8371
31.2686
31.7705
32.3438
32.988
33.7015
34.4824
35.3291
36.2406
37.22
38.2717
39.4165
40.6719
42.0632
36.0602
36.5177
37.0411
37.5633
38.0604
38.5677
39.0548
39.5145
39.9549
40.366
40.7546
41.1204
41.4613
41.7807
42.0767
42.3463
42.5855
42.7887
42.9476
43.052
43.0897
43.0411
42.8829
42.5988
42.1758
41.5597
40.6458
39.3393
37.5753
35.3638
32.8859
30.1448
27.0347
23.8707
21.3546
21.4301
24.101
27.9861
32.5651
35.6168
35.1806
34.6887
34.1345
33.5928
33.038
32.4854
31.9766
31.5376
31.165
30.8588
30.6173
30.4294
30.2864
30.1812
30.1068
30.0596
30.0383
30.0426
30.0747
30.1386
30.2406
30.3902
30.5982
30.8699
31.2047
31.6034
32.069
32.6034
33.2071
33.8798
34.6205
35.4284
36.3034
37.2489
38.2691
39.3845
40.6079
41.9648
36.1392
36.5752
37.0751
37.5736
38.0477
38.5312
38.9957
39.433
39.8504
40.2392
40.6047
40.9484
41.2663
41.5624
41.8346
42.0798
42.2938
42.4707
42.6019
42.6769
42.6827
42.6022
42.4135
42.0969
41.6373
40.9948
40.0876
38.8212
37.1062
34.9554
32.5465
29.8339
26.7515
23.6316
21.1402
21.2465
24.1319
28.5217
33.486
35.7173
35.3025
34.8354
34.3091
33.7962
33.2724
32.7517
32.2744
31.864
31.5172
31.2335
31.0111
30.8393
30.7094
30.615
30.5488
30.5079
30.4904
30.4965
30.5276
30.5874
30.6814
30.8188
31.0097
31.2598
31.5686
31.9373
32.3693
32.8672
33.4324
34.0656
34.7666
35.5357
36.3734
37.2836
38.2704
39.3535
40.5424
41.8585
36.2195
36.6346
37.1114
37.5866
38.0387
38.4997
38.9411
39.3561
39.7519
40.119
40.462
40.7842
41.0799
41.3532
41.6023
41.8239
42.0138
42.1657
42.2713
42.32
42.2982
42.1901
41.977
41.6387
41.1572
40.498
39.598
38.3705
36.7162
34.6473
32.3143
29.6165
26.5341
23.3973
20.8909
20.9937
24.1027
29.0415
34.2775
35.818
35.424
34.9804
34.4811
33.9957
33.5013
33.0112
32.5637
32.1806
31.8581
31.5957
31.3913
31.2343
31.1171
31.0324
30.9744
30.9392
30.9259
30.9336
30.9645
31.0209
31.1085
31.2353
31.4114
31.6421
31.9275
32.2689
32.6699
33.1336
33.6623
34.2574
34.9195
35.65
36.4499
37.3234
38.2749
39.323
40.474
41.7483
36.3003
36.6954
37.1499
37.6029
38.0331
38.4714
38.8914
39.2849
39.6587
40.0048
40.3261
40.6274
40.9017
41.1532
41.3801
41.5794
41.7464
41.8753
41.9575
41.9828
41.9379
41.8071
41.5753
41.2242
40.7335
40.0703
39.1825
37.9924
36.4038
34.4307
32.1677
29.475
26.3742
23.1742
20.6157
20.6666
24.0005
29.4726
34.7822
35.9188
35.5446
35.1238
34.6502
34.1909
33.7247
33.2637
32.8448
32.4874
32.1879
31.9456
31.758
31.6151
31.5096
31.4342
31.3837
31.3543
31.3447
31.3546
31.3852
31.4393
31.5214
31.6393
31.8023
32.0159
32.2803
32.5968
32.9693
33.4013
33.8955
34.454
35.0785
35.7707
36.5325
37.3686
38.2831
39.2939
40.405
41.6321
36.3818
36.7574
37.1902
37.6212
38.0306
38.4476
38.8455
39.218
39.5713
39.8969
40.1973
40.4786
40.7323
40.9628
41.1687
41.3467
41.4925
41.6002
41.6616
41.6668
41.6029
41.4549
41.2102
40.8536
40.3642
39.7091
38.8422
37.6929
36.1727
34.2937
32.0943
29.412
26.2726
22.9716
20.321
20.2623
23.818
29.7554
34.933
36.0194
35.6643
35.2652
34.8161
34.3819
33.9424
33.5093
33.1175
32.7846
32.5069
32.2834
32.1114
31.9821
31.8871
31.821
31.7771
31.7534
31.7474
31.7594
31.7902
31.8424
31.9201
32.0304
32.182
32.3804
32.6259
32.9198
33.2662
33.6687
34.1305
34.6542
35.2421
35.8967
36.6203
37.4181
38.2942
39.2657
40.334
41.5138
36.4634
36.8204
37.2323
37.6423
38.0309
38.4264
38.8041
39.1564
39.489
39.7949
40.0753
40.3373
40.5714
40.7821
40.9681
41.1264
41.2527
41.3415
41.3846
41.3728
41.2941
41.1341
40.8825
40.5274
40.0483
39.4119
38.5759
37.4748
36.0306
34.2448
32.1017
29.4294
26.2347
22.8003
20.015
19.7875
23.5576
29.877
34.7906
36.1194
35.7827
35.4044
34.9789
34.5684
34.1544
33.748
33.3821
33.0723
32.8151
32.6093
32.4522
32.3351
32.2506
32.1926
32.1556
32.1367
32.1345
32.1484
32.1796
32.2303
32.3043
32.4081
32.5499
32.7349
32.9633
33.2368
33.5593
33.9346
34.366
34.8567
35.4094
36.0272
36.7129
37.4721
38.3087
39.2391
40.2633
41.3914
36.5452
36.884
37.2755
37.6649
38.0339
38.4095
38.7663
39.0988
39.4123
39.6992
39.9606
40.2041
40.4195
40.6114
40.7788
40.9189
41.0275
41.0994
41.1268
41.1013
41.0119
40.8449
40.592
40.2454
39.7845
39.1759
38.3811
37.3399
35.9808
34.2866
32.1997
29.5389
26.2709
22.6736
19.7072
19.2593
23.2273
29.861
34.512
36.2188
35.8996
35.5413
35.1383
34.7505
34.3607
33.9797
33.6385
33.3506
33.1128
32.9235
32.7803
32.6749
32.6
32.5497
32.5188
32.5048
32.506
32.5219
32.5536
32.6031
32.674
32.7723
32.9057
33.0787
33.2918
33.5467
33.8474
34.1975
34.6006
35.06
35.579
36.1609
36.8092
37.5295
38.3258
39.2138
40.1915
41.2688
36.6265
36.9481
37.3201
37.6898
38.0395
38.3948
38.7328
39.0463
39.3406
39.6093
39.8525
40.0781
40.2761
40.4505
40.6007
40.7242
40.8169
40.8741
40.8885
40.8522
40.7561
40.5869
40.3378
40.0063
39.5719
38.9987
38.2551
37.2895
36.0276
34.4264
32.4003
29.7534
26.3959
22.6083
19.4092
18.7038
22.8353
29.7395
34.2558
36.3173
36.015
35.6758
35.2944
34.9281
34.5611
34.2046
33.8868
33.6197
33.4
33.2263
33.0961
33.0015
32.9355
32.8924
32.8673
32.8577
32.8621
32.88
32.9123
32.9609
33.0293
33.1229
33.2488
33.4112
33.6106
33.8486
34.1293
34.4563
34.833
35.263
35.7498
36.2971
36.9086
37.5901
38.3457
39.1901
40.1211
41.1439
36.7079
37.0126
37.3655
37.716
38.0474
38.3841
38.7025
38.9978
39.2745
39.5257
39.7519
39.9599
40.1414
40.2996
40.4339
40.5423
40.621
40.6655
40.6694
40.6252
40.5259
40.3592
40.1187
39.808
39.4084
38.8775
38.1929
37.3214
36.1776
34.6779
32.7191
30.0896
26.6291
22.6275
19.1469
18.1494
22.3769
29.5059
34.0913
36.4149
36.1287
35.8078
35.4469
35.1011
34.7559
34.4226
34.127
33.8795
33.6769
33.5178
33.3997
33.3151
33.2573
33.2209
33.2012
33.1958
33.2032
33.223
33.2559
33.3038
33.3699
33.4595
33.5789
33.732
33.919
34.1419
34.4043
34.7099
35.062
35.4644
35.9205
36.4344
37.01
37.6529
38.3676
39.1679
40.0504
41.0203
36.7885
37.0773
37.412
37.7442
38.0576
38.3754
38.6765
38.9544
39.2133
39.4479
39.6579
39.8494
40.0156
40.1585
40.2784
40.3732
40.4395
40.4732
40.4689
40.4197
40.3202
40.1605
39.9327
39.6465
39.2907
38.81
38.188
37.427
36.4302
35.0583
33.1843
30.5703
26.9956
22.7607
18.9656
17.6226
21.828
29.1021
33.9122
36.5113
36.2406
35.9371
35.5959
35.2695
34.9449
34.6338
34.3593
34.1303
33.9436
33.7981
33.6912
33.6159
33.5657
33.5356
33.5208
33.5192
33.5295
33.551
33.5846
33.632
33.6963
33.7823
33.8959
34.0406
34.2167
34.4259
34.6715
34.9573
35.2866
35.663
36.0901
36.5719
37.1125
37.7175
38.3915
39.1473
39.9818
40.8963
36.8688
37.142
37.4592
37.7734
38.07
38.3706
38.6537
38.9147
39.1577
39.3764
39.5712
39.7472
39.8988
40.0277
40.1342
40.2167
40.2721
40.2969
40.2864
40.2346
40.1373
39.9884
39.7778
39.5177
39.2117
38.793
38.2327
37.5909
36.7882
35.5974
33.8329
31.2292
27.5288
23.0434
18.9077
17.1426
21.1448
28.4267
33.4701
36.6064
36.3506
36.0638
35.7413
35.4334
35.1282
34.8382
34.5838
34.372
34.2002
34.0673
33.9708
33.904
33.8609
33.8365
33.8263
33.8283
33.8412
33.8644
33.8987
33.9457
34.0083
34.0911
34.1995
34.3369
34.5032
34.6998
34.9302
35.1977
35.5058
35.8578
36.2574
36.7084
37.2151
37.783
38.4166
39.1281
39.9137
40.775
36.9482
37.2068
37.5071
37.8046
38.0845
38.3678
38.635
38.8801
39.107
39.3107
39.4911
39.6527
39.7909
39.9068
40.0012
40.0726
40.1185
40.1358
40.1209
40.0687
39.9756
39.8395
39.6505
39.4165
39.1606
38.8194
38.323
37.7864
37.2277
36.3191
34.7182
32.1195
28.2767
23.5207
19.0129
16.7278
20.2754
27.365
32.4387
36.7003
36.4585
36.1877
35.8831
35.5926
35.3059
35.0359
34.8005
34.6049
34.4468
34.3255
34.2386
34.1797
34.1431
34.1239
34.1179
34.1232
34.1385
34.1633
34.1983
34.2449
34.306
34.3859
34.4897
34.6205
34.778
34.9633
35.1796
35.4303
35.7186
36.0477
36.4213
36.843
37.317
37.8488
38.4426
39.1102
39.8482
40.6548
37.0271
37.2715
37.5555
37.8365
38.1011
38.3686
38.6193
38.8493
39.0618
39.2513
39.4181
39.5664
39.692
39.796
39.8792
39.9406
39.9782
39.9895
39.9715
39.9205
39.8331
39.7102
39.5457
39.3397
39.1267
38.8722
38.4566
37.9896
37.6783
37.1876
35.8789
33.314
29.3122
24.2592
19.3286
16.4096
19.1811
25.818
30.5999
36.7928
36.5645
36.3088
36.0212
35.7474
35.4779
35.227
35.0094
34.8289
34.6835
34.5729
34.4947
34.443
34.4124
34.398
34.3959
34.4043
34.4218
34.448
34.4836
34.5299
34.5896
34.6668
34.7664
34.8913
35.0408
35.2159
35.4194
35.6545
35.9243
36.232
36.5809
36.9747
37.4172
37.9139
38.469
39.0935
39.7835
40.5384
37.105
37.336
37.6047
37.8703
38.1196
38.3712
38.6077
38.8233
39.0214
39.1975
39.3518
39.4877
39.6019
39.695
39.768
39.8205
39.8509
39.8571
39.8371
39.7881
39.7074
39.5973
39.4573
39.282
39.1023
38.9276
38.6206
38.1961
38.0442
38.0558
37.2651
34.872
30.7333
25.3562
19.9331
16.2529
17.8615
23.7324
27.8985
36.8838
36.6683
36.427
36.1557
35.8975
35.6443
35.4115
35.2108
35.0441
34.9104
34.8094
34.7393
34.6942
34.669
34.659
34.6605
34.6717
34.6912
34.7188
34.7549
34.8009
34.8593
34.9341
35.0298
35.1492
35.2914
35.4571
35.6489
35.8696
36.1222
36.4097
36.7353
37.1025
37.5149
37.9778
38.4952
39.0776
39.7217
40.4242
37.1822
37.4003
37.6541
37.9048
38.1402
38.3775
38.5991
38.801
38.9863
39.15
39.2925
39.417
39.5206
39.6036
39.6675
39.7119
39.7359
39.7381
39.7167
39.67
39.5962
39.4979
39.3797
39.2365
39.0848
38.965
38.7808
38.4154
38.2752
38.692
38.6516
36.7447
32.6206
26.9285
20.9396
16.3683
16.3907
21.125
24.4681
36.9733
36.77
36.5425
36.2866
36.0432
35.8053
35.5895
35.4045
35.2507
35.1275
35.0354
34.9725
34.9334
34.9131
34.9073
34.912
34.9257
34.9471
34.9758
35.0125
35.0582
35.1154
35.1878
35.28
35.3943
35.5297
35.6867
35.8677
36.075
36.3115
36.5802
36.8839
37.2258
37.6094
38.0398
38.5209
39.0624
39.6609
40.3144
37.2582
37.4643
37.7042
37.941
38.1626
38.3857
38.5945
38.7836
38.9561
39.1081
39.2398
39.3538
39.4477
39.5217
39.5772
39.6145
39.633
39.6317
39.6093
39.5648
39.4975
39.4097
39.3089
39.1953
39.0706
38.9781
38.8951
38.6361
38.4166