/*--------------------------------*- C++ -*----------------------------------*\
| =========                 |                                                 |
| \\      /  F ield         | OpenFOAM: The Open Source CFD Toolbox           |
|  \\    /   O peration     | Version:  v1806                                 |
|   \\  /    A nd           | Web:      www.OpenFOAM.com                      |
|    \\/     M anipulation  |                                                 |
\*---------------------------------------------------------------------------*/
FoamFile
{
    version     2.0;
    format      ascii;
    class       volScalarField;
    location    "100";
    object      nuTilda;
}
// * * * * * * * * * * * * * * * * * * * * * * * * * * * * * * * * * * * * * //

dimensions      [0 2 -1 0 0 0 0];


internalField   nonuniform List<scalar> 
10720
(
0.143435
0.15086
0.158401
0.165399
0.172058
0.176808
0.178225
0.174039
0.160464
0.134336
0.0958521
0.052729
0.0342985
0.0424851
0.046267
0.0479386
0.0459713
0.0436301
0.0438908
0.0485368
0.056379
0.0641141
0.0707761
0.0783754
0.0887164
0.101788
0.115977
0.128628
0.136332
0.135992
0.126873
0.10664
0.0789644
0.0557086
0.0527607
0.0534616
0.0580596
0.0853029
0.077847
0.13723
0.131195
0.124802
0.118112
0.111146
0.103793
0.0960404
0.0878704
0.0792677
0.0702704
0.0607163
0.0504497
0.0389081
0.0267193
0.0250395
0.0269345
0.035636
0.0427767
0.0491571
0.0555605
0.0623383
0.0695869
0.0772771
0.0853005
0.0933937
0.101237
0.108692
0.115705
0.122324
0.128505
0.134286
0.139733
0.144953
0.150045
0.155
0.160059
0.16431
0.170216
0.167273
0.101904
0.102085
0.10408
0.108886
0.116555
0.128366
0.144332
0.163295
0.183034
0.198998
0.206152
0.202539
0.198398
0.214769
0.228187
0.210096
0.17126
0.144169
0.124843
0.123046
0.133553
0.141266
0.142327
0.141599
0.144421
0.15214
0.162926
0.176095
0.191786
0.207203
0.22247
0.231066
0.238551
0.252549
0.259429
0.260644
0.263224
0.254104
0.271405
0.101561
0.101847
0.102129
0.102181
0.101981
0.101456
0.100468
0.0989452
0.0969277
0.094546
0.0917669
0.0887396
0.0857025
0.0827259
0.0794843
0.07577
0.0720733
0.0686698
0.0656453
0.0629918
0.0607475
0.0589205
0.0575502
0.0565965
0.0560673
0.0560156
0.0564482
0.0573426
0.0586618
0.0603382
0.0623363
0.0647536
0.067941
0.0719314
0.0764197
0.081123
0.0858344
0.0912498
0.0986917
0.123933
0.123364
0.122369
0.121537
0.12065
0.120036
0.121357
0.126185
0.137633
0.157597
0.18427
0.213171
0.240672
0.274042
0.312197
0.338021
0.346959
0.330981
0.285847
0.27174
0.29847
0.32467
0.333907
0.332608
0.333603
0.342616
0.357931
0.376366
0.396845
0.420523
0.439605
0.448068
0.447022
0.444147
0.44187
0.440858
0.453567
0.45427
0.441012
0.124466
0.124745
0.125117
0.12522
0.125143
0.124855
0.124277
0.123361
0.122118
0.120603
0.118807
0.116759
0.114537
0.112214
0.109774
0.107147
0.104398
0.101592
0.0988015
0.0960473
0.0933715
0.0907697
0.0882491
0.085694
0.0830345
0.0803268
0.0776158
0.0749587
0.0723955
0.070008
0.0678111
0.0658253
0.0650106
0.0655906
0.0670649
0.069041
0.0716564
0.074508
0.0802264
0.132486
0.132622
0.13268
0.132575
0.132281
0.130574
0.128449
0.126502
0.125904
0.129803
0.142091
0.16738
0.204734
0.252932
0.312712
0.378099
0.435701
0.463229
0.451706
0.455989
0.493682
0.524341
0.526099
0.511017
0.499853
0.502557
0.51873
0.544808
0.577778
0.612151
0.637101
0.643353
0.632035
0.619733
0.613717
0.614077
0.633832
0.642616
0.600807
0.132351
0.132266
0.132231
0.132207
0.132097
0.131903
0.131583
0.131116
0.1305
0.129742
0.128846
0.127842
0.126701
0.125438
0.124027
0.122444
0.120728
0.118908
0.117015
0.115067
0.11309
0.11109
0.109067
0.10694
0.104638
0.102188
0.0996111
0.0969368
0.0941854
0.0914192
0.0886353
0.0858682
0.0831955
0.0807108
0.0784855
0.0765127
0.0758299
0.0756804
0.075263
0.135589
0.135486
0.135255
0.134876
0.134362
0.134073
0.1337
0.132344
0.130223
0.128156
0.128195
0.134956
0.156114
0.197025
0.260153
0.346161
0.447872
0.535073
0.574193
0.600383
0.652973
0.697442
0.703534
0.681225
0.658984
0.654881
0.671728
0.704949
0.748828
0.793975
0.827819
0.834475
0.808945
0.790865
0.783956
0.789619
0.818855
0.836859
0.772367
0.135617
0.135614
0.135596
0.135538
0.13543
0.135277
0.135058
0.134762
0.134388
0.133938
0.133419
0.132876
0.132264
0.131576
0.130784
0.129885
0.128894
0.127817
0.126666
0.125447
0.124173
0.122842
0.121452
0.119947
0.118272
0.116435
0.114442
0.112306
0.110037
0.107673
0.105213
0.102685
0.100117
0.0975474
0.0950164
0.0925101
0.0901679
0.0878121
0.0828536
0.1379
0.138066
0.138166
0.138195
0.138162
0.137971
0.137659
0.137116
0.136186
0.133852
0.131105
0.128973
0.132093
0.150156
0.19464
0.274242
0.395114
0.537079
0.644931
0.709539
0.78105
0.847746
0.870554
0.850366
0.820313
0.808452
0.822946
0.859406
0.911173
0.967921
1.01654
1.03197
0.99067
0.968527
0.966781
0.985042
1.02658
1.05492
0.963993
0.137712
0.137603
0.137449
0.137356
0.137236
0.137098
0.136927
0.136717
0.136466
0.136172
0.135843
0.135517
0.135168
0.134774
0.134313
0.133792
0.133215
0.132583
0.1319
0.131167
0.130385
0.129552
0.128661
0.127673
0.126548
0.125282
0.123874
0.122326
0.120639
0.118833
0.116905
0.114871
0.112748
0.110563
0.108342
0.106075
0.103783
0.101565
0.094832
0.13902
0.139153
0.139235
0.139257
0.139212
0.139128
0.13902
0.138878
0.138694
0.138085
0.136592
0.133718
0.130368
0.131187
0.148271
0.199544
0.305947
0.472548
0.648249
0.775433
0.87711
0.972445
1.02409
1.01732
0.984818
0.965042
0.973859
1.00898
1.06468
1.13259
1.20243
1.23882
1.18596
1.16777
1.1901
1.22754
1.28638
1.3263
1.18905
0.13886
0.138744
0.13857
0.138455
0.13832
0.138191
0.138047
0.137885
0.137704
0.137497
0.137271
0.137059
0.136851
0.136616
0.13634
0.136032
0.135693
0.135323
0.134923
0.134491
0.134026
0.133523
0.132973
0.132349
0.13162
0.130781
0.129826
0.128754
0.127562
0.126258
0.124838
0.123308
0.12168
0.119966
0.11819
0.116333
0.114405
0.112548
0.106436
0.139772
0.139906
0.140012
0.140084
0.140124
0.14013
0.140082
0.139981
0.139847
0.139702
0.139393
0.138348
0.13549
0.131468
0.131014
0.149386
0.216767
0.365569
0.578011
0.777069
0.931565
1.06489
1.15737
1.17752
1.15064
1.12491
1.12578
1.15472
1.20857
1.28435
1.38055
1.4521
1.4005
1.39921
1.44134
1.49833
1.57867
1.63218
1.47129
0.139627
0.139505
0.139341
0.139202
0.139028
0.138897
0.138766
0.138634
0.138496
0.138342
0.138176
0.13803
0.137903
0.137758
0.137592
0.13741
0.137211
0.136999
0.136773
0.136533
0.136274
0.13599
0.135671
0.135294
0.134837
0.134293
0.133659
0.132933
0.13211
0.131195
0.130183
0.129077
0.12788
0.1266
0.125252
0.123815
0.122311
0.120788
0.115876
0.140207
0.140326
0.140425
0.140497
0.140545
0.140567
0.140572
0.140555
0.140503
0.140419
0.140345
0.140256
0.139459
0.136628
0.132055
0.13044
0.155544
0.254681
0.45351
0.69968
0.922642
1.11302
1.26124
1.32484
1.31462
1.28765
1.28029
1.2987
1.34293
1.41908
1.54375
1.66566
1.63801
1.65064
1.71262
1.79225
1.89743
1.96596
1.79152
0.14008
0.139976
0.139841
0.139709
0.139528
0.13939
0.139261
0.139137
0.139026
0.138908
0.138782
0.138677
0.138599
0.138509
0.138409
0.138302
0.138189
0.138074
0.137958
0.137842
0.137721
0.137587
0.137426
0.137219
0.136947
0.136606
0.136195
0.135713
0.135156
0.134528
0.133823
0.133042
0.132188
0.131262
0.130278
0.129208
0.128092
0.126851
0.123316
0.140484
0.140594
0.140688
0.140762
0.140816
0.140852
0.140875
0.140886
0.140882
0.140853
0.140791
0.140784
0.140845
0.140166
0.137379
0.131464
0.129713
0.173143
0.316553
0.557548
0.832764
1.09675
1.32179
1.45072
1.47263
1.45182
1.43886
1.44432
1.47006
1.53346
1.68347
1.87154
1.89829
1.91916
2.00283
2.10867
2.24091
2.32514
2.1431
0.140372
0.140287
0.140174
0.140051
0.139887
0.139765
0.13964
0.139503
0.139395
0.139304
0.139209
0.13913
0.139079
0.139024
0.138965
0.138904
0.138843
0.138787
0.13874
0.138705
0.138678
0.138647
0.138596
0.138503
0.138357
0.138158
0.137904
0.137596
0.137232
0.136812
0.136336
0.135801
0.135209
0.134559
0.133864
0.133093
0.132294
0.131303
0.129053
0.140661
0.140761
0.140847
0.140915
0.140967
0.141006
0.141036
0.141061
0.141082
0.141097
0.141086
0.141049
0.141112
0.141257
0.140757
0.137498
0.128756
0.133175
0.208087
0.394215
0.672744
0.999928
1.32048
1.54199
1.61853
1.61467
1.60181
1.59582
1.59562
1.62688
1.79008
2.06007
2.17484
2.20556
2.31337
2.44849
2.60839
2.70808
2.52382
0.14056
0.140487
0.140393
0.140281
0.140135
0.140037
0.139934
0.139802
0.139674
0.139594
0.139523
0.139463
0.139424
0.13939
0.139355
0.139323
0.139293
0.139272
0.139266
0.139282
0.139315
0.139353
0.139375
0.139359
0.139301
0.139201
0.13906
0.138876
0.138651
0.138387
0.13808
0.137728
0.137334
0.136894
0.136423
0.135877
0.135327
0.134558
0.133226
0.140777
0.140868
0.140945
0.141006
0.141054
0.141094
0.141126
0.141157
0.141188
0.14122
0.141248
0.141254
0.141248
0.141348
0.14167
0.141315
0.135776
0.12575
0.147091
0.256717
0.48437
0.83003
1.24191
1.58139
1.74198
1.77187
1.76708
1.75611
1.72858
1.70452
1.85427
2.21898
2.45642
2.51144
2.64703
2.81307
2.99927
3.11219
2.93091
0.140682
0.140617
0.140537
0.140438
0.14031
0.14023
0.140146
0.14004
0.139913
0.139812
0.13976
0.139719
0.139684
0.139658
0.139638
0.139622
0.139611
0.139611
0.139627
0.13967
0.139737
0.139816
0.139882
0.139917
0.13992
0.139889
0.139825
0.139729
0.139605
0.139452
0.139268
0.139051
0.138803
0.138517
0.138215
0.137826
0.137474
0.136891
0.13618
0.14085
0.140932
0.141
0.141053
0.141097
0.141136
0.141169
0.141202
0.141239
0.141279
0.141323
0.141365
0.141392
0.141386
0.141576
0.14232
0.14096
0.132167
0.12723
0.17014
0.315935
0.622101
1.08743
1.55237
1.82806
1.91611
1.92967
1.92371
1.87779
1.78016
1.87047
2.33367
2.7302
2.83855
3.00812
3.20392
3.41177
3.53353
3.35978
0.140759
0.140699
0.140629
0.140544
0.140429
0.140359
0.140291
0.140215
0.140115
0.139976
0.139939
0.139913
0.139887
0.139864
0.139848
0.139841
0.139842
0.139852
0.139879
0.139933
0.140013
0.140112
0.140202
0.140267
0.140309
0.14032
0.140305
0.140268
0.140211
0.140134
0.140034
0.139911
0.139766
0.139591
0.139409
0.139125
0.138941
0.138491
0.138163
0.140892
0.140965
0.141025
0.141072
0.141112
0.141149
0.141182
0.141217
0.141257
0.141302
0.141354
0.141408
0.141473
0.141497
0.141486
0.142047
0.142723
0.138993
0.129807
0.133048
0.197626
0.420388
0.879514
1.44711
1.85944
2.03513
2.08303
2.0903
2.0449
1.87523
1.84293
2.38835
2.98375
3.1952
3.40231
3.62358
3.84423
3.96809
3.80577
0.140806
0.140748
0.140688
0.140614
0.140505
0.14044
0.140388
0.140341
0.14026
0.140119
0.140074
0.140058
0.140042
0.140026
0.140012
0.140007
0.140012
0.140028
0.140058
0.140113
0.140196
0.1403
0.140401
0.14048
0.14054
0.140574
0.140589
0.140587
0.14057
0.14054
0.140494
0.14043
0.140352
0.140251
0.140149
0.13994
0.139885
0.139512
0.139395
0.140913
0.140977
0.141029
0.141071
0.141107
0.141143
0.141176
0.141211
0.141251
0.141298
0.141354
0.141415
0.141491
0.141568
0.141555
0.14174
0.142545
0.142172
0.137691
0.128593
0.135208
0.258652
0.652783
1.27236
1.82096
2.11267
2.21677
2.24671
2.21509
2.00421
1.79454
2.36889
3.20383
3.59559
3.8358
4.07525
4.29476
4.41113
4.26241
0.14083
0.140773
0.140723
0.140657
0.140554
0.140496
0.140459
0.140431
0.140367
0.140259
0.140199
0.140177
0.140163
0.140153
0.140142
0.140136
0.140141
0.140157
0.140187
0.14024
0.140318
0.140417
0.140519
0.140604
0.140672
0.140718
0.140748
0.140765
0.140771
0.140767
0.140751
0.140723
0.140685
0.140629
0.140575
0.14042
0.140441
0.140122
0.140115
0.140916
0.140972
0.141016
0.141054
0.141089
0.141122
0.141156
0.14119
0.14123
0.141278
0.141334
0.1414
0.141476
0.141571
0.141627
0.141704
0.142069
0.142431
0.142509
0.137121
0.116752
0.151963
0.440377
1.04734
1.70447
2.13017
2.31596
2.38165
2.37128
2.1521
1.76304
2.27081
3.37489
4.02677
4.31299
4.56102
4.7611
4.85712
4.72515
0.140837
0.140782
0.14074
0.140681
0.140588
0.140539
0.140508
0.140493
0.140451
0.140377
0.140335
0.1403
0.140274
0.140256
0.140245
0.140238
0.14024
0.140255
0.140283
0.140332
0.140401
0.140492
0.140587
0.140671
0.140742
0.140793
0.140831
0.140857
0.140876
0.140887
0.140888
0.140879
0.140863
0.140832
0.140804
0.140685
0.140742
0.140469
0.140526
0.140904
0.140952
0.140992
0.141027
0.14106
0.141092
0.141125
0.141159
0.141199
0.141248
0.141305
0.141371
0.141449
0.141542
0.141625
0.141755
0.141936
0.141791
0.143266
0.14534
0.123813
0.0992938
0.266463
0.797869
1.51178
2.0699
2.36139
2.47998
2.49958
2.30305
1.77128
2.10336
3.47966
4.46592
4.83727
5.08298
5.24097
5.29988
5.18119
0.14083
0.140779
0.140741
0.140691
0.140613
0.140569
0.140536
0.140529
0.140508
0.140465
0.140447
0.140423
0.140386
0.140351
0.14033
0.14032
0.140319
0.14033
0.140355
0.140398
0.140459
0.14054
0.140627
0.140704
0.140771
0.140824
0.140866
0.140898
0.140923
0.140941
0.140951
0.140952
0.140945
0.140927
0.140911
0.140811
0.140882
0.140656
0.140751
0.140884
0.140927
0.140963
0.140996
0.141026
0.141057
0.141088
0.141121
0.141162
0.14121
0.141268
0.141335
0.141414
0.141509
0.141585
0.141734
0.142023
0.141513
0.141953
0.148398
0.138927
0.0891331
0.144633
0.551067
1.25454
1.9189
2.33085
2.52216
2.58186
2.43119
1.82079
1.88834
3.50196
4.89396
5.41814
5.64436
5.73286
5.73247
5.59725
0.140818
0.140768
0.140732
0.140693
0.140628
0.140581
0.140548
0.140544
0.140536
0.140519
0.140513
0.140501
0.14048
0.140446
0.140409
0.140389
0.140384
0.14039
0.140411
0.140448
0.140501
0.14057
0.140647
0.140718
0.140781
0.140832
0.140874
0.140907
0.140934
0.140954
0.140966
0.140971
0.140967
0.140953
0.140941
0.140854
0.140921
0.140742
0.140864
0.140864
0.140902
0.140934
0.140963
0.14099
0.141018
0.141048
0.14108
0.141119
0.141166
0.141223
0.14129
0.141368
0.141469
0.141548
0.141649
0.142054
0.141759
0.140687
0.146809
0.150495
0.105106
0.0792774
0.333487
0.953863
1.67271
2.20205
2.48423
2.59588
2.50578
1.88737
1.65364
3.43022
5.29274
6.06577
6.24959
6.23671
6.14789
5.9643
0.140803
0.140757
0.140723
0.14069
0.140631
0.14058
0.140554
0.140552
0.140545
0.140544
0.140546
0.140544
0.140535
0.140516
0.140488
0.140455
0.140441
0.140442
0.140457
0.140487
0.140532
0.140591
0.140659
0.140722
0.140778
0.140824
0.140863
0.140895
0.140921
0.14094
0.140952
0.140955
0.140952
0.140937
0.140926
0.140854
0.140897
0.140766
0.140907
0.140838
0.140873
0.1409
0.140926
0.140951
0.140977
0.141005
0.141038
0.141075
0.14112
0.141174
0.14124
0.141314
0.141414
0.141513
0.141565
0.141932
0.142135
0.140443
0.143388
0.154358
0.129581
0.065211
0.17026
0.641889
1.34021
1.95771
2.33953
2.51574
2.4943
1.93089
1.42122
3.26064
5.64294
6.74888
6.90621
6.75357
6.54036
6.28066
0.140782
0.140744
0.140712
0.140683
0.140625
0.140575
0.140558
0.140559
0.140551
0.140555
0.140563
0.140567
0.140567
0.140561
0.140547
0.140522
0.140496
0.140488
0.140496
0.140517
0.140555
0.140605
0.140664
0.140722
0.140772
0.140813
0.140847
0.140875
0.140898
0.140915
0.140925
0.140928
0.140925
0.140911
0.1409
0.140839
0.140846
0.140758
0.140914
0.140807
0.140838
0.140863
0.140886
0.14091
0.140935
0.140962
0.140993
0.14103
0.141074
0.141126
0.141189
0.14126
0.14135
0.141465
0.141514
0.141736
0.142286
0.141047
0.140712
0.151614
0.148434
0.086459
0.0796857
0.363952
0.95311
1.59606
2.06486
2.31396
2.36602
1.90759
1.19732
2.99914
5.92662
7.4225
7.62173
7.28504
6.90627
6.54523
0.140757
0.140724
0.140696
0.140669
0.140615
0.140569
0.14056
0.140566
0.140557
0.140562
0.140572
0.140581
0.140587
0.140588
0.140586
0.140572
0.140548
0.140529
0.140528
0.140543
0.140573
0.140616
0.140666
0.140717
0.140763
0.140801
0.140832
0.140857
0.140877
0.140892
0.140901
0.140903
0.140899
0.140884
0.140871
0.140823
0.140806
0.140748
0.140911
0.140775
0.140803
0.140826
0.140848
0.140869
0.140891
0.140916
0.140947
0.140983
0.141026
0.141077
0.141139
0.141209
0.141289
0.141403
0.141481
0.141573
0.142149
0.141817
0.139858
0.146291
0.155836
0.119427
0.0603985
0.168452
0.574306
1.15014
1.65749
1.97103
2.09727
1.77972
0.965954
2.65962
6.13209
8.06088
8.37132
7.82845
7.24513
6.75794
0.140731
0.1407
0.140673
0.140651
0.140603
0.140564
0.140558
0.140566
0.14056
0.140566
0.140576
0.140587
0.140598
0.140605
0.140608
0.140604
0.140591
0.140567
0.140558
0.140566
0.140588
0.140624
0.140668
0.140712
0.140753
0.140787
0.140815
0.140838
0.140856
0.14087
0.140877
0.140878
0.140874
0.140862
0.140849
0.140813
0.140776
0.140784
0.140938
0.140744
0.140769
0.140789
0.140808
0.140826
0.140846
0.14087
0.140899
0.140933
0.140975
0.141025
0.141085
0.141155
0.141232
0.141335
0.141442
0.141485
0.141876
0.142237
0.140422
0.142024
0.153694
0.144102
0.0861642
0.0786517
0.282392
0.701927
1.1643
1.50116
1.68558
1.52651
0.717438
2.27154
6.25887
8.65157
9.10234
8.37992
7.56041
6.92096
0.140706
0.140674
0.140648
0.14063
0.140591
0.140554
0.14055
0.140558
0.140556
0.140564
0.140576
0.140588
0.1406
0.140611
0.140618
0.140621
0.140615
0.140603
0.140585
0.140586
0.140601
0.140631
0.14067
0.140709
0.140745
0.140775
0.140801
0.140822
0.140838
0.140851
0.140858
0.140861
0.140858
0.140846
0.140833
0.140807
0.140758
0.140823
0.140976
0.140712
0.140733
0.140751
0.140766
0.140782
0.140801
0.140823
0.14085
0.140884
0.140924
0.140972
0.141029
0.141097
0.141174
0.141266
0.141385
0.141445
0.141636
0.142219
0.141387
0.140264
0.147846
0.153645
0.121559
0.0732062
0.124068
0.353883
0.690904
0.983413
1.18587
1.16819
0.457746
1.87349
6.31787
9.19025
9.79707
8.94863
7.85917
7.03913
0.140679
0.140647
0.140624
0.14061
0.140578
0.14054
0.140535
0.140544
0.140546
0.140555
0.140569
0.140582
0.140596
0.140608
0.14062
0.140626
0.140628
0.140622
0.140612
0.140604
0.140614
0.140638
0.140671
0.140706
0.140738
0.140767
0.14079
0.14081
0.140826
0.140838
0.140845
0.140847
0.140844
0.140836
0.140826
0.140813
0.140762
0.140833
0.140979
0.140677
0.140694
0.14071
0.140725
0.140739
0.140756
0.140777
0.140803
0.140837
0.140875
0.14092
0.140974
0.141038
0.141112
0.141198
0.141312
0.141408
0.141496
0.141965
0.142009
0.140444
0.143079
0.152134
0.144281
0.104118
0.0820098
0.161009
0.346016
0.543621
0.714344
0.752615
0.266787
1.52361
6.33142
9.67863
10.4522
9.53646
8.14681
7.11877
0.140649
0.140617
0.1406
0.140591
0.140561
0.140523
0.140519
0.140531
0.140534
0.140544
0.140558
0.140573
0.140588
0.140602
0.140616
0.140626
0.140632
0.140633
0.14063
0.140622
0.140627
0.140645
0.140672
0.140702
0.140732
0.140758
0.140781
0.140799
0.140815
0.140826
0.140835
0.14084
0.140842
0.140838
0.140832
0.140837
0.140799
0.140867
0.140991
0.14064
0.140654
0.140671
0.140684
0.140698
0.140713
0.140733
0.140758
0.14079
0.140827
0.140871
0.140922
0.140982
0.141052
0.141133
0.141234
0.141352
0.141429
0.141699
0.142122
0.141276
0.141033
0.146985
0.151102
0.133023
0.0992515
0.0995682
0.166224
0.265617
0.379562
0.424716
0.0604168
1.2398
6.34126
10.1248
11.0677
10.1034
8.42275
7.16631
0.140616
0.140584
0.140576
0.140571
0.140542
0.140505
0.140503
0.14052
0.140523
0.140532
0.140547
0.140563
0.140579
0.140594
0.140609
0.140622
0.140631
0.140638
0.14064
0.14064
0.140641
0.140653
0.140675
0.140701
0.140728
0.140753
0.140775
0.140794
0.14081
0.140824
0.140835
0.140844
0.140852
0.140859
0.14087
0.140912
0.140888
0.140948
0.141043
0.140604
0.140618
0.140634
0.140646
0.140658
0.140672
0.14069
0.140714
0.140745
0.140781
0.140823
0.140872
0.140929
0.140995
0.141072
0.141161
0.141278
0.141382
0.141524
0.141932
0.141866
0.140973
0.143079
0.148921
0.146622
0.126469
0.105932
0.11064
0.140648
0.207505
0.212995
0.0956643
1.08135
6.393
10.5417
11.6457
10.6371
8.68446
7.18716
0.140582
0.140555
0.14055
0.140548
0.14052
0.140489
0.140488
0.140508
0.140513
0.140523
0.140538
0.140554
0.14057
0.140586
0.140601
0.140616
0.140628
0.140638
0.140645
0.14065
0.140656
0.140663
0.140681
0.140704
0.140728
0.140753
0.140775
0.140796
0.140816
0.140834
0.14085
0.14087
0.140896
0.140923
0.140947
0.140992
0.14101
0.141055
0.14112
0.140571
0.140584
0.140598
0.140608
0.140618
0.14063
0.140647
0.140671
0.140701
0.140735
0.140776
0.140823
0.140877
0.14094
0.141014
0.141095
0.141199
0.141325
0.14143
0.141684
0.141997
0.141565
0.141578
0.144905
0.148276
0.142585
0.128227
0.114188
0.109692
0.141216
0.130306
0.0808403
1.07403
6.53362
10.9469
12.19
11.1373
8.92911
7.18395
0.140551
0.140529
0.140521
0.140523
0.140499
0.140474
0.140475
0.140494
0.140503
0.140515
0.140529
0.140545
0.140561
0.140578
0.140594
0.14061
0.140624
0.140636
0.140648
0.140656
0.140665
0.140676
0.140691
0.140713
0.140738
0.140763
0.140787
0.140812
0.140838
0.140864
0.140891
0.140917
0.140946
0.14098
0.141011
0.141054
0.141088
0.141141
0.14119
0.140538
0.140551
0.140563
0.14057
0.140578
0.140589
0.140606
0.140628
0.140657
0.14069
0.14073
0.140775
0.140827
0.140887
0.140957
0.141033
0.141124
0.141255
0.14137
0.141499
0.141844
0.141986
0.141591
0.142409
0.145363
0.147001
0.14351
0.130761
0.118829
0.133405
0.0945273
0.0953183
1.28301
6.80072
11.3554
12.7052
11.6068
9.16071
7.1579
0.140519
0.140502
0.14049
0.140498
0.140478
0.140462
0.140464
0.140477
0.140491
0.140505
0.140521
0.140537
0.140553
0.14057
0.140587
0.140603
0.140619
0.140634
0.140647
0.14066
0.140672
0.140686
0.140706
0.140729
0.140756
0.140784
0.140811
0.140838
0.140865
0.140893
0.140925
0.140957
0.140989
0.141023
0.141058
0.141101
0.141138
0.141198
0.141242
0.140506
0.140518
0.140528
0.140533
0.140539
0.14055
0.140566
0.140588
0.140616
0.140648
0.140685
0.140729
0.140778
0.140834
0.140901
0.140974
0.141055
0.141178
0.141309
0.141383
0.141625
0.142062
0.141999
0.141643
0.14256
0.145827
0.14885
0.141976
0.135093
0.146313
0.0665711
0.123708
1.66736
7.21032
11.7806
13.1969
12.0495
9.39135
7.10932
0.140487
0.140474
0.140461
0.140473
0.140457
0.14045
0.140452
0.140459
0.140476
0.140494
0.140512
0.140529
0.140546
0.140563
0.140581
0.140598
0.140614
0.140631
0.140647
0.140663
0.140677
0.140694
0.140715
0.14074
0.140768
0.140797
0.140826
0.140857
0.14089
0.140922
0.140953
0.140986
0.141021
0.141058
0.141094
0.141137
0.141174
0.141238
0.141278
0.140476
0.140485
0.140495
0.140498
0.140504
0.140514
0.14053
0.140551
0.140577
0.140608
0.140643
0.140683
0.14073
0.140782
0.140845
0.140915
0.14099
0.141102
0.141237
0.141301
0.14145
0.141934
0.142233
0.141691
0.141184
0.143859
0.148445
0.145524
0.148129
0.154214
0.0738705
0.162645
2.13405
7.74191
12.2287
13.6703
12.4691
9.59682
7.03597
0.140458
0.140446
0.140434
0.140449
0.140436
0.140436
0.140437
0.140442
0.140461
0.140482
0.140502
0.140521
0.140539
0.140557
0.140575
0.140593
0.140611
0.140629
0.140647
0.140664
0.140683
0.140702
0.140724
0.140751
0.14078
0.140813
0.140845
0.140878
0.14091
0.140942
0.140977
0.141012
0.141047
0.141085
0.141123
0.141166
0.141203
0.141267
0.141303
0.140446
0.140454
0.140462
0.140465
0.14047
0.14048
0.140495
0.140515
0.14054
0.140569
0.140603
0.140641
0.140684
0.140733
0.140791
0.140856
0.140927
0.14103
0.141159
0.141224
0.141326
0.141762
0.142218
0.141812
0.140866
0.142851
0.14646
0.144776
0.155008
0.155995
0.0503021
0.21781
2.73564
8.34696
12.6969
14.1294
12.8697
9.77323
6.93789
0.140431
0.140419
0.14041
0.140425
0.140417
0.14042
0.140422
0.140426
0.140447
0.14047
0.140493
0.140513
0.140532
0.140552
0.140572
0.140591
0.14061
0.140629
0.140649
0.140668
0.140688
0.140709
0.140734
0.140763
0.140794
0.140827
0.140861
0.140895
0.140929
0.140963
0.140998
0.141033
0.14107
0.141108
0.141147
0.141189
0.141227
0.141289
0.141321
0.140417
0.140424
0.140431
0.140433
0.140438
0.140447
0.140462
0.140482
0.140506
0.140533
0.140565
0.140602
0.140642
0.140687
0.140741
0.140801
0.140865
0.140962
0.141081
0.141138
0.14123
0.141626
0.142068
0.141726
0.140954
0.142829
0.14459
0.14317
0.15931
0.146763
0.0104909
0.0373903
3.43002
8.9997
13.1802
14.5776
13.2561
9.92189
6.81838
0.140403
0.140394
0.140387
0.140403
0.1404
0.140404
0.140407
0.140414
0.140435
0.14046
0.140484
0.140506
0.140527
0.14055
0.140572
0.140593
0.140613
0.140633
0.140653
0.140674
0.140695
0.140718
0.140744
0.140775
0.140808
0.140843
0.140878
0.140913
0.140947
0.140982
0.141018
0.141054
0.141091
0.141128
0.141167
0.141209
0.141245
0.141306
0.141332
0.140389
0.140395
0.140402
0.140404
0.140408
0.140417
0.140431
0.14045
0.140472
0.140499
0.140529
0.140564
0.140603
0.140644
0.140694
0.140749
0.140806
0.140897
0.141006
0.141045
0.141141
0.141538
0.141888
0.141445
0.141083
0.143212
0.14323
0.14225
0.163455
0.131371
0.0414954
0.329593
4.17679
9.67828
13.6735
15.0174
13.6331
10.0498
6.68725
0.140377
0.140369
0.140364
0.140381
0.140383
0.140388
0.140392
0.140404
0.140425
0.140451
0.140476
0.140501
0.140525
0.14055
0.140575
0.140598
0.140619
0.140639
0.14066
0.140682
0.140705
0.140729
0.140757
0.14079
0.140826
0.140861
0.140896
0.140931
0.140966
0.141002
0.141037
0.141073
0.141109
0.141146
0.141183
0.141224
0.14126
0.141319
0.141339
0.140362
0.140368
0.140374
0.140376
0.14038
0.140389
0.140402
0.14042
0.140441
0.140466
0.140495
0.140528
0.140565
0.140604
0.14065
0.1407
0.14075
0.140836
0.140935
0.140951
0.141053
0.14148
0.14171
0.141072
0.141173
0.143552
0.142091
0.143628
0.164025
0.108513
0.0726636
0.719696
4.96294
10.3654
14.1745
15.4511
14.0055
10.1719
6.55919
0.140351
0.140345
0.140342
0.14036
0.140366
0.140372
0.140378
0.140394
0.140416
0.140443
0.140471
0.140498
0.140526
0.140554
0.14058
0.140604
0.140626
0.140647
0.140668
0.140691
0.140716
0.140743
0.140773
0.140807
0.140843
0.140879
0.140915
0.14095
0.140986
0.141021
0.141056
0.141091
0.141126
0.141162
0.141197
0.141236
0.14127
0.141326
0.14134
0.140337
0.140342
0.140348
0.140349
0.140353
0.140362
0.140375
0.140392
0.140412
0.140436
0.140463
0.140495
0.140529
0.140565
0.140608
0.140654
0.140697
0.140776
0.140868
0.14086
0.140963
0.141428
0.141543
0.140705
0.141234
0.143516
0.14102
0.147507
0.164095
0.0956496
0.112343
1.15494
5.77598
11.0504
14.6793
15.8801
14.3787
10.303
6.44639
0.140327
0.140321
0.14032
0.140339
0.140348
0.140358
0.140365
0.140383
0.140408
0.140437
0.140468
0.140499
0.140529
0.140558
0.140585
0.140611
0.140635
0.140657
0.140679
0.140703
0.140729
0.140758
0.14079
0.140825
0.140861
0.140898
0.140935
0.140971
0.141005
0.14104
0.141074
0.141107
0.141141
0.141175
0.141208
0.141245
0.141276
0.141328
0.141335
0.140314
0.140318
0.140323
0.140324
0.140328
0.140337
0.14035
0.140366
0.140385
0.140408
0.140434
0.140464
0.140497
0.14053
0.140569
0.140612
0.140648
0.140718
0.140806
0.140774
0.140865
0.14138
0.141395
0.14037
0.141245
0.142792
0.141895
0.152735
0.152327
0.0663234
0.163892
1.71468
6.58835
11.7213
15.1791
16.3046
14.7579
10.461
6.3556
0.140303
0.140299
0.1403
0.14032
0.140332
0.140344
0.140352
0.140372
0.140401
0.140432
0.140466
0.140501
0.140534
0.140565
0.140593
0.140619
0.140645
0.140669
0.140693
0.140718
0.140745
0.140775
0.140808
0.140844
0.140882
0.140919
0.140956
0.140991
0.141025
0.141059
0.141091
0.141122
0.141154
0.141185
0.141216
0.141249
0.141277
0.141325
0.141319
0.140292
0.140296
0.140299
0.1403
0.140304
0.140313
0.140326
0.140341
0.140359
0.140381
0.140406
0.140435
0.140465
0.140496
0.140532
0.140572
0.140602
0.140661
0.14075
0.140696
0.140761
0.141329
0.141278
0.140087
0.141048
0.142027
0.144366
0.156521
0.138456
0.034752
0.251359
2.36574
7.39463
12.3686
15.6646
16.7234
15.1482
10.6658
6.28605
0.140281
0.140278
0.140281
0.140301
0.140317
0.140332
0.14034
0.140362
0.140394
0.140429
0.140467
0.140506
0.140542
0.140576
0.140607
0.140635
0.140662
0.140688
0.140713
0.140738
0.140766
0.140796
0.14083
0.140867
0.140905
0.140943
0.140979
0.141013
0.141045
0.141076
0.141106
0.141135
0.141163
0.141192
0.141219
0.141249
0.141273
0.141317
0.141304
0.140272
0.140275
0.140277
0.140277
0.140281
0.14029
0.140302
0.140317
0.140335
0.140355
0.140379
0.140406
0.140435
0.140465
0.140497
0.140533
0.140558
0.140604
0.140696
0.140632
0.140646
0.141265
0.141234
0.139874
0.14044
0.141806
0.147827
0.157212
0.117975
0.0345058
0.167455
3.059
8.1699
12.9793
16.1268
17.1333
15.5518
10.9371
6.23116
0.140261
0.140258
0.140263
0.140284
0.140304
0.14032
0.14033
0.140354
0.140388
0.140428
0.140473
0.140517
0.14056
0.140598
0.140633
0.140664
0.140691
0.140718
0.140743
0.140769
0.140796
0.140826
0.140858
0.140895
0.140932
0.140968
0.141003
0.141035
0.141064
0.141093
0.141119
0.141145
0.14117
0.141194
0.141218
0.141244
0.141264
0.141303
0.141286
0.140252
0.140255
0.140257
0.140256
0.14026
0.140268
0.14028
0.140295
0.140312
0.140331
0.140354
0.14038
0.140407
0.140435
0.140463
0.140496
0.140518
0.140549
0.14064
0.140586
0.140519
0.141176
0.141316
0.139631
0.139366
0.142536
0.151469
0.155559
0.0921031
0.0586352
0.474364
3.76484
8.89243
13.5375
16.5546
17.5273
15.9667
11.2845
6.18059
0.140242
0.14024
0.140246
0.140269
0.140292
0.14031
0.140321
0.140347
0.140384
0.140432
0.140486
0.14054
0.140591
0.140637
0.140676
0.140709
0.140738
0.140763
0.140788
0.140812
0.140837
0.140864
0.140895
0.140928
0.140963
0.140996
0.141027
0.141055
0.141082
0.141107
0.14113
0.141151
0.141172
0.141193
0.141212
0.141233
0.14125
0.141284
0.141263
0.140234
0.140237
0.140238
0.140237
0.14024
0.140249
0.140261
0.140275
0.140291
0.14031
0.140331
0.140356
0.140381
0.140407
0.140432
0.140461
0.140479
0.140497
0.140583
0.140555
0.140406
0.141043
0.141493
0.13936
0.138236
0.143585
0.155517
0.152748
0.0723251
0.0905714
0.787101
4.44008
9.53636
14.0243
16.9319
17.8932
16.3853
11.7063
6.13253
0.140225
0.140223
0.140231
0.140255
0.14028
0.1403
0.140313
0.140342
0.140384
0.140443
0.14051
0.140576
0.140637
0.140689
0.140733
0.140769
0.140798
0.140823
0.140844
0.140865
0.140887
0.14091
0.140936
0.140965
0.140995
0.141023
0.14105
0.141074
0.141097
0.141117
0.141136
0.141153
0.14117
0.141186
0.141202
0.141218
0.14123
0.141259
0.141239
0.140218
0.14022
0.140221
0.14022
0.140223
0.140232
0.140243
0.140256
0.140272
0.140289
0.14031
0.140333
0.140357
0.140382
0.140403
0.140426
0.140444
0.14045
0.140524
0.140532
0.140322
0.140859
0.141641
0.139355
0.137101
0.144646
0.159011
0.140425
0.0567189
0.128329
1.13721
5.02964
10.0686
14.4149
17.2375
18.2131
16.7948
12.1919
6.10093
0.14021
0.140209
0.140218
0.140244
0.14027
0.140292
0.140306
0.140338
0.140391
0.140464
0.140546
0.140624
0.140692
0.14075
0.140796
0.140834
0.140863
0.140886
0.140905
0.140922
0.140939
0.140957
0.140977
0.141001
0.141025
0.141048
0.14107
0.14109
0.141107
0.141123
0.141137
0.141151
0.141163
0.141175
0.141186
0.141197
0.141205
0.141227
0.141208
0.140203
0.140204
0.140205
0.140203
0.140207
0.140216
0.140226
0.140239
0.140254
0.14027
0.14029
0.140312
0.140335
0.140357
0.140376
0.140393
0.140409
0.14041
0.140465
0.140514
0.140277
0.140645
0.141698
0.139671
0.136408
0.144388
0.159754
0.136082
0.0497072