/*--------------------------------*- C++ -*----------------------------------*\
| =========                 |                                                 |
| \\      /  F ield         | OpenFOAM: The Open Source CFD Toolbox           |
|  \\    /   O peration     | Version:  v1806                                 |
|   \\  /    A nd           | Web:      www.OpenFOAM.com                      |
|    \\/     M anipulation  |                                                 |
\*---------------------------------------------------------------------------*/
FoamFile
{
    version     2.0;
    format      ascii;
    class       volScalarField;
    location    "100";
    object      p;
}
// * * * * * * * * * * * * * * * * * * * * * * * * * * * * * * * * * * * * * //

dimensions      [0 2 -2 0 0 0 0];


internalField   nonuniform List<scalar> 
10720
(
-1166.25
-1235.92
-1302.87
-1335.79
-1320.34
-1282.13
-1215.94
-1135.07
-1065.74
-1021.83
-1005.35
-1002.97
-998.577
-986.322
-974.235
-963.402
-954.679
-950.561
-953.845
-963.448
-975.702
-987.126
-996.625
-1007.53
-1027.94
-1067.38
-1126.53
-1187.16
-1211.13
-1157.65
-1008.81
-806.376
-613.265
-473.556
-372.557
-289.494
-215.161
-124.38
-63.9485
-1053.88
-939.456
-766.646
-566.87
-349.639
-123.075
99.3763
298.071
460.266
585.588
676.149
737.156
773.88
790.878
795.609
792.149
781.897
766.442
746.706
723.233
696.311
665.984
632.15
595.347
557.287
519.511
481.56
443.438
405.401
367.161
330.687
294.253
258.014
221.812
185.407
148.89
112.171
84.8086
65.3186
-622.998
-717.198
-803.223
-860.844
-892.543
-909.408
-917.244
-926.427
-946.83
-974.024
-993.559
-995.805
-989.049
-980.587
-971.252
-961.169
-952.473
-948.34
-951.588
-961.193
-973.503
-984.835
-994.389
-1005.36
-1025.34
-1064.01
-1122.78
-1183.7
-1208.57
-1156.6
-1009.41
-807.748
-614.726
-474.732
-373.388
-290.073
-215.567
-124.399
-67.8796
-530.162
-434.024
-325.449
-198.217
-57.8214
91.7192
242.726
383.926
506.39
606.111
682.135
735.929
769.892
787.038
792.44
789.502
780.057
765.431
746.44
723.642
697.333
667.631
634.512
598.533
561.091
523.529
485.645
447.49
409.335
370.921
334.177
297.471
260.948
224.47
187.827
151.141
114.324
87.0753
64.0728
-537.785
-619.085
-690.477
-750.787
-798.117
-833.357
-857.455
-872.793
-886.526
-906.006
-931.643
-954.995
-969.701
-972.996
-966.849
-958.237
-949.698
-945.517
-948.95
-958.89
-971.354
-982.609
-992.652
-1004.49
-1024.64
-1062.7
-1120.96
-1182.03
-1207.64
-1156.95
-1011.24
-809.974
-616.834
-476.48
-374.709
-291.012
-216.32
-124.844
-70.082
-450.691
-350.881
-235.476
-108.315
25.5753
162.84
296.958
420.069
526.804
614.573
682.682
731.864
763.749
780.849
787.087
785.178
776.784
763.071
744.86
722.719
696.986
667.838
635.317
599.939
562.887
525.426
487.613
449.501
411.346
372.908
336.056
299.265
262.638
226.057
189.328
152.614
115.795
88.3954
62.753
-350.651
-426.854
-500.886
-568.553
-628.521
-681.156
-725.936
-763.803
-796.772
-827.926
-859.364
-892.177
-924.121
-947.208
-955.81
-952.968
-945.555
-942.218
-946.821
-957.841
-970.327
-980.782
-990.858
-1003.76
-1024.55
-1062.26
-1120.21
-1181.7
-1208.28
-1158.83
-1014.33
-813.052
-619.367
-478.456
-376.144
-292.022
-217.153
-125.362
-72.1221
-274.45
-192.425
-100.028
4.42539
115.187
229.954
343.427
448.67
541.057
618.402
679.719
725.062
755.348
772.594
779.82
779.119
771.953
759.381
742.196
720.951
696.02
667.616
635.85
601.194
564.695
527.528
489.917
451.919
413.798
375.353
338.357
301.448
264.67
227.936
191.066
154.274
117.364
89.704
61.7143
-267.921
-341.43
-413.918
-482.395
-543.348
-598.373
-646.793
-688.976
-727.11
-763.384
-798.89
-833.842
-868.599
-901.47
-927.21
-939.461
-939.48
-938.649
-945.287
-958.156
-970.933
-979.922
-989.108
-1002.84
-1024.66
-1062.43
-1120.3
-1182.48
-1210.26
-1162.15
-1018.77
-817.143
-622.5
-480.801
-377.881
-293.235
-218.15
-126.061
-74.6928
-194.127
-115.415
-27.6946
68.8588
169.139
271.834
372.786
466.258
548.539
618.086
674.006
716.123
745.016
762.462
770.734
771.379
765.607
754.371
738.395
718.23
694.252
666.722
635.793
601.926
566.046
529.247
491.88
454.038
415.995
377.583
340.483
303.493
266.6
229.745
192.76
155.915
118.908
90.9411
60.7109
-186.027
-254.572
-324.074
-390.711
-452.601
-511.23
-565.654
-615.386
-660.979
-703.452
-743.601
-781.708
-817.935
-852.778
-886.314
-913.657
-928.308
-934.638
-944.308
-959.229
-972.672
-980.108
-987.574
-1001.69
-1024.82
-1063.07
-1121.09
-1184.29
-1213.62
-1167.01
-1024.65
-822.477
-626.415
-483.666
-379.985
-294.748
-219.441
-127.171
-78.0092
-117.985
-46.8044
32.3284
119.709
209.946
302.223
393.038
477.146
551.389
614.631
666.086
705.401
733.085
750.74
760.027
762.043
757.759
747.993
733.392
714.476
691.624
665.114
635.154
602.167
567.014
530.681
493.651
456.032
418.142
379.811
342.638
305.588
268.593
231.619
194.518
157.603
120.468
92.0897
59.6937
-130.278
-195.599
-262.908
-328.44
-390.055
-449.219
-504.844
-556.432
-604.776
-650.184
-693.221
-734.156
-772.936
-809.414
-844.869
-879.688
-908.849
-927.866
-943.533
-960.784
-974.832
-981.041
-986.451
-1000.5
-1025.24
-1064.49
-1122.94
-1187.33
-1218.44
-1173.45
-1032.09
-829.134
-631.196
-487.092
-382.577
-296.65
-221.11
-128.722
-81.7841
-65.6856
1.02245
74.9424
155.802
238.663
323.108
406.082
482.857
550.697
608.803
656.48
693.28
719.909
737.746
747.945
751.275
748.505
740.28
727.178
709.647
688.071
662.718
633.842
601.827
567.493
531.734
495.134
457.817
420.142
381.938
344.735
307.652
270.581
233.506
196.297
159.317
122.038
93.1527
58.7398
-84.3746
-146.57
-211.062
-274.392
-334.687
-393.357
-449.467
-502.64
-553.119
-600.967
-646.436
-689.847
-731.24
-770.261
-807.217
-844.21
-881.607
-914.214
-940.238
-961.857
-976.709
-981.957
-985.473
-999.149
-1025.73
-1066.56
-1125.75
-1191.58
-1224.8
-1181.62
-1041.16
-837.189
-636.85
-491.008
-385.506
-298.877
-223.131
-130.808
-86.1665
-23.7475
38.7108
107.548
182.831
259.507
337.457
414.044
484.822
547.388
601.189
645.56
680.127
705.805
723.757
734.724
739.273
737.965
731.313
719.773
703.743
683.557
659.499
631.81
600.88
567.452
532.39
496.297
459.369
421.962
383.955
346.755
309.677
272.553
235.397
198.09
161.036
123.592
94.1099
57.7528
-49.2357
-108.322
-170.337
-231.723
-290.395
-348.249
-403.854
-456.955
-508.076
-556.952
-603.739
-648.75
-692.005
-733.407
-772.612
-810.756
-850.78
-892.246
-930.189
-959.754
-977.31
-982.316
-984.537
-997.873
-1026.49
-1069.57
-1129.87
-1197.26
-1232.82
-1191.51
-1051.86
-846.548
-643.347
-495.367
-388.865
-301.499
-225.566
-133.387
-90.8417
8.59172
67.3443
132.207
202.756
274.304
346.915
418.166
483.955
542.094
592.2
633.63
666.228
691.054
709.017
720.598
726.223
726.288
721.176
711.225
696.763
678.068
655.411
629.016
599.267
566.844
532.585
497.097
460.645
423.581
385.831
348.693
311.656
274.511
237.295
199.903
162.777
125.157
94.9924
56.8457
-20.7375
-77.2114
-136.802
-195.965
-252.932
-309.412
-364.079
-416.735
-467.838
-517.144
-564.684
-610.702
-655.179
-698.215
-739.66
-779.54
-820.142
-864.599
-911
-950.484
-974.185
-981.01
-983.106
-996.607
-1027.45
-1073.35
-1135.18
-1204.21
-1242.36
-1203.1
-1064.08
-857.165
-650.552
-500.034
-392.443
-304.419
-228.374
-136.582
-96.1157
34.1251
89.7537
150.96
217.5
284.643
352.655
419.401
480.938
535.29
582.149
620.958
651.828
675.866
693.723
705.769
712.306
713.629
709.98
701.611
688.742
671.613
650.435
625.438
596.953
565.644
532.281
497.508
461.602
424.957
387.526
350.508
313.543
276.416
239.163
201.702
164.496
126.687
95.7591
55.8878
2.0382
-52.0167
-109.251
-166.363
-221.428
-276.598
-330.082
-381.679
-432.244
-481.363
-529.072
-575.562
-620.799
-664.826
-707.819
-749.702
-791.209
-835.567
-884.883
-932.3
-964.788
-976.858
-980.907
-995.565
-1028.97
-1078.15
-1141.92
-1212.53
-1253.28
-1216.12
-1077.59
-868.728
-658.319
-504.981
-396.384
-307.754
-231.648
-140.33
-101.598
54.3611
107.149
165.248
228.19
291.522
355.594
418.405
476.268
527.307
571.268
607.754
637.125
660.388
678.047
690.4
697.696
700.13
697.85
691.003
679.729
664.197
644.571
621.043
593.91
563.799
531.438
497.475
462.209
426.065
389.024
352.192
315.344
278.277
241.016
203.505
166.222
128.221
96.461
55.0255
20.3771
-31.3021
-86.3194
-141.371
-194.708
-248.255
-300.423
-350.896
-400.512
-449.083
-496.549
-543.089
-588.658
-633.296
-677.159
-720.523
-763.5
-807.558
-856.063
-906.907
-947.806
-968.316
-977.285
-994.554
-1031.03
-1083.85
-1149.76
-1221.74
-1264.85
-1229.91
-1091.89
-880.858
-666.399
-509.99
-400.423
-311.352
-235.313
-144.763
-107.702
70.4773
120.743
175.983
235.795
295.748
356.312
415.69
470.323
518.41
559.755
594.211
622.259
644.743
662.117
674.647
682.547
685.94
684.909
679.5
669.79
655.858
637.828
615.824
590.121
561.287
530.031
496.965
462.435
426.856
390.284
353.697
317.014
280.038
242.808
205.265
167.902
129.695
97.0435
54.1071
35.3513
-14.2467
-67.1389
-120.277
-171.754
-223.796
-274.604
-323.72
-372.23
-419.95
-466.842
-513.081
-558.61
-603.519
-647.871
-692.012
-736.281
-780.863
-827.791
-878.31
-924.766
-954.945
-971.911
-993.744
-1033.81
-1090.6
-1158.8
-1231.52
-1276.31
-1243.56
-1106.2
-892.87
-674.397
-515
-404.73
-315.377
-239.502
-149.8
-113.981
83.3082
131.274
183.996
240.919
297.863
355.338
411.633
463.369
508.797
547.791
580.475
607.302
629.017
646.033
658.632
666.986
671.199
671.271
667.207
658.989
646.643
630.213
609.783
585.562
558.083
528.012
495.944
462.235
427.313
391.281
355.017
318.553
281.718
244.557
207.008
169.572
131.164
97.5774
53.3044
47.4985
-0.0640224
-50.9969
-102.24
-152.056
-202.437
-251.865
-299.685
-346.878
-393.533
-439.636
-485.309
-530.51
-575.345
-619.91
-664.375
-709.272
-754.679
-800.894
-849.602
-898.29
-937.078
-964.071
-992.701
-1037.15
-1097.94
-1168.58
-1241.32
-1286.49
-1255.74
-1119.36
-903.944
-681.761
-519.739
-408.941
-319.619
-244.08
-155.57
-120.881
93.5137
139.395
189.757
244.116
298.325
352.98
406.518
455.64
498.63
535.535
566.644
592.336
613.277
629.889
642.451
651.133
656.015
657.059
654.221
647.414
636.606
621.767
602.928
580.234
554.171
525.364
494.378
461.578
427.388
391.973
356.104
319.906
283.258
246.197
208.677
171.166
132.551
97.9868
52.4421
57.4255
11.7063
-37.3221
-86.8132
-134.887
-183.778
-231.783
-278.206
-324.076
-369.526
-414.643
-459.554
-504.19
-548.683
-593.153
-637.695
-682.696
-728.56
-774.959
-822.292
-871.014
-916.071
-953.48
-990.889
-1040.77
-1105.61
-1178.64
-1250.84
-1295.08
-1265.62
-1130.23
-913.012
-687.854
-523.976
-413.21
-324.274
-249.223
-161.982
-127.941
101.611
145.531
193.775
245.719
297.448
349.565
400.568
447.296
488.051
523.093
552.774
577.4
597.571
613.746
626.183
635.088
640.497
642.384
640.639
635.151
625.805
612.531
595.277
574.14
549.534
522.062
492.235
460.433
427.057
392.338
356.942
321.077
284.672
247.758
210.3
172.73
133.922
98.368
51.72
65.504
21.5767
-25.7016
-73.4672
-119.984
-167.264
-213.846
-258.986
-303.466
-347.617
-391.61
-435.596
-479.482
-523.402
-567.49
-611.863
-656.706
-702.49
-749.21
-796.202
-844.217
-892.905
-939.547
-986.887
-1043.49
-1112.63
-1187.88
-1259.09
-1301.26
-1271.98
-1137.38
-918.942
-691.943
-527.219
-417.176
-329.039
-254.743
-169.137
-135.594
107.97
150.092
196.314
246.086
295.514
345.27
393.971
438.48
477.192
510.553
538.929
562.53
581.95
597.647
609.905
618.919
624.747
627.335
626.564
622.279
614.316
602.55
586.862
567.289
544.175
518.089
489.491
458.762
426.28
392.328
357.482
322.011
285.89
249.168
211.8
174.187
135.182
98.6253
50.9389
72.0837
29.7922
-15.771
-61.9218
-106.813
-152.65
-197.803
-241.584
-284.751
-327.539
-370.311
-413.234
-456.229
-499.393
-542.88
-586.817
-631.353
-676.748
-723.411
-770.709
-818.374
-868.511
-921.983
-979.064
-1043.55
-1117.54
-1194.98
-1264.88
-1304.05
-1273.76
-1139.56
-920.73
-693.177
-529.063
-420.861
-334.128
-260.846
-176.93
-143.402
112.928
153.338
197.721
245.407
292.724
340.314
386.856
429.293
466.143
497.976
525.138
547.752
566.438
581.636
593.66
602.7
608.84
612.005
612.086
608.881
602.212
591.878
577.724
559.697
538.1
513.435
486.133
456.543
425.041
391.923
357.713
322.704
286.934
250.456
213.221
175.59
136.411
98.8764
50.3243
77.4118
36.7162
-7.25654
-51.8164
-95.2446
-139.553
-183.307
-225.835
-267.633
-309.028
-350.51
-392.295
-434.272
-476.546
-519.253
-562.523
-606.551
-651.434
-697.607
-745.117
-793.05
-843.375
-900.495
-965.5
-1038.19
-1117.77
-1197.61
-1266.02
-1301.4
-1269.05
-1135.1
-917.144
-690.69
-528.913
-423.789
-339.277
-267.251
-185.395
-151.784
116.714
155.536
198.138
243.927
289.247
334.796
379.342
419.841
454.982
485.414
511.424
533.102
551.059
565.753
577.491
586.493
592.841
596.478
597.283
595.048
589.561
580.581
567.901
551.397
531.315
508.097
482.137
453.746
423.292
391.077
357.578
323.097
287.73
251.535
214.475
176.838
137.504
99.0027
49.6481
81.7153
42.4895
0.0899797
-42.9718
-84.8886
-127.815
-170.182
-211.375
-251.883
-291.891
-332.038
-372.616
-413.479
-454.746
-496.53
-538.968
-582.266
-626.546
-672.017
-719.246
-767.644
-817.857
-875.584
-945.028
-1024.58
-1110.05
-1192.79
-1259.92
-1291.11
-1256.09
-1122.72
-907.229
-683.81
-526.191
-425.935
-344.583
-274.189
-194.413
-160.399
119.552
156.845
197.809
241.749
285.209
328.873
371.512
410.201
443.752
472.886
497.799
518.585
535.827
550.012
561.431
570.34
576.81
580.821
582.232
580.855
576.434
568.722
557.439
542.427
523.84
502.089
477.499
450.369
421.025
389.785
357.068
323.198
288.295
252.446
215.607
178.006
138.549
99.1455
49.1607
85.1543
47.3803
6.44292
-35.1417
-75.6845
-117.146
-158.164
-198.095
-237.299
-275.951
-314.739
-354.037
-393.714
-433.864
-474.616
-516.082
-558.47
-601.971
-646.66
-693.12
-741.55
-791.712
-848.108
-917.653
-1000.57
-1090.64
-1176.44
-1242.78
-1269.85
-1231.9
-1100.22
-889.582
-671.803
-520.392
-426.85
-349.768
-281.396
-204.017
-169.636
121.584
157.446
196.808
239.049
280.735
322.588
363.451
400.429
432.507
460.413
484.295
504.213
520.766
534.429
545.515
554.271
560.803
565.087
567.008
566.369
562.912
556.36
546.399
532.817
515.7
495.408
472.211
446.38
418.2
387.994
356.129
322.934
288.555
253.097
216.516
178.977
139.418
99.1591
48.6115
87.8754
51.4548
11.9771
-28.2074
-67.3229
-107.466
-147.137
-185.734
-223.724
-261.055
-298.468
-336.433
-374.865
-413.815
-453.435
-493.812
-535.153
-577.67
-621.473
-666.903
-714.658
-764.552
-818.959
-885.015
-966.231
-1057.26
-1144.83
-1210.84
-1234.55
-1193.91
-1066.01
-863.505
-654.441
-511.299
-426.397
-354.89
-289.034
-214.17
-179.308
122.968
157.439
195.315
235.882
275.903
316.062
355.208
390.569
421.281
448.02
470.916
489.998
505.884
519.023
529.757
538.32
544.856
549.331
551.669
551.658
549.059
543.559
534.839
522.613
506.933
488.078
466.293
441.785
414.826
385.703
354.766
322.316
288.535
253.525
217.262
179.834
140.224
99.2043
48.2662
89.9978
54.9237
16.8058
-21.9841
-59.8024
-98.5431
-136.905
-174.267
-210.995
-247.036
-283.062
-319.678
-356.811
-394.51
-432.904
-472.096
-512.259
-553.616
-596.329
-640.582
-687.061
-736.057
-788.394
-849.238
-924.017
-1010.51
-1096.14
-1160.92
-1182.3
-1139.72
-1018.15
-827.977
-631.588
-498.859
-424.351
-359.692
-296.958
-225.034
-189.901
123.793
156.953
193.36
232.381
270.791
309.314
346.836
380.68
410.099
435.736
457.672
475.956
491.18
503.809
514.165
522.519
528.995
533.604
536.265
536.791
534.936
530.39
522.808
511.867
497.562
480.119
459.732
436.568
410.859
382.872
352.912
321.279
288.145
253.645
217.726
180.453
140.81
99.1217
47.8492
91.6244
57.8049
21.0619
-16.4035
-52.8731
-90.345
-127.403
-163.468
-199.006
-233.771
-268.413
-303.661
-339.458
-375.859
-412.957
-450.876
-489.755
-529.811
-571.216
-614.13
-658.985
-706.357
-756.467
-811.995
-877.816
-954.645
-1033.06
-1093.77
-1113.27
-1070.76
-957.519
-783.97
-604.113
-483.683
-420.784
-364.135
-305.301
-236.751
-201.455
124.171
156.052
191.09
228.567
265.46
302.438
338.38
370.791
398.981
423.565
444.573
462.085
476.665
488.789
498.763
506.875
513.252
517.937
520.845
521.82
520.605
516.914
510.367
500.634
487.635
471.568
452.56
430.752
406.317
379.512
350.586
319.838
287.419
253.498
217.983
180.928
141.314
99.0799
47.6514
92.832
60.2725
24.815
-11.3307
-46.5639
-82.6827
-118.482
-153.333
-187.636
-221.145
-254.432
-288.292
-322.729
-357.775
-393.527
-430.087
-467.6
-506.219
-546.136
-587.486
-630.514
-675.706
-723.224
-773.922
-830.722
-895.281
-961.885
-1014.48
-1030.99
-990.848
-887.167
-733.171
-573.073
-466.587
-415.783
-368.127
-314.07
-249.581
-214.58
124.163
154.828
188.501
224.555
259.966
295.437
329.897
360.932
387.957
411.517
431.638
448.39
462.349
473.962
483.554
491.395
497.658
502.353
505.455
506.789
506.13
503.184
497.582
488.956
477.197
462.443
444.789
424.319
401.178
375.573
347.732
317.917
286.277
252.974
217.918
181.112
141.571
98.886
47.3673
93.6854
62.3133
28.159
-6.72292
-40.658
-75.5625
-110.091
-143.673
-176.794
-209.074
-241.038
-273.499
-306.546
-340.203
-374.561
-409.7
-445.76
-482.85
-521.133
-560.726
-601.748
-644.457
-688.977
-735.263
-784.299
-836.988
-890.02
-931.589
-943.194
-906.588
-814.018
-679.9
-540.905
-448.904
-409.8
-371.661
-323.251
-263.42
-229.189
123.849
153.321
185.722
220.341
254.351
288.395
321.403
351.126
377.027
399.602
418.861
434.881
448.23
459.34
468.537
476.119
482.207
486.893
490.119
491.744
491.557
489.261
484.504
476.894
466.297
452.795
436.455
417.306
395.465
371.085
344.374
315.545
284.754
252.135
217.608
181.12
141.735
98.7337
47.3129
94.2499
64.0745
31.1385
-2.47498
-35.2247
-68.82
-102.116
-134.52
-166.395
-197.476
-228.143
-259.21
-290.839
-323.086
-356.007
-389.679
-424.21
-459.696
-496.227
-533.912
-572.758
-612.826
-654.077
-696.143
-738.766
-781.62
-822.169
-852.18
-857.598
-823.942
-743.517
-627.827
-509.302
-431.548
-403.284
-374.776
-332.804
-278.055
-245.321
123.269
151.604
182.728
216.018
248.651
281.299
312.933
341.396
366.209
387.833
406.253
421.563
434.308
444.925
453.749
461.019
466.941
471.558
474.868
476.72
476.924
475.199
471.186
464.503
454.977
442.66
427.575
409.717
389.158
366.015
340.454
312.657
282.756
250.877
216.92
180.803
141.613
98.4146
47.1586
94.5733
65.5174
33.8314
1.43125
-30.0698
-62.4886
-94.5452
-125.707
-156.402
-186.296
-215.683
-245.355
-275.563
-306.379
-337.842
-370.005
-402.956
-436.766
-471.477
-507.143
-543.703
-581.043
-618.944
-656.886
-694.073
-729.317
-759.999
-780.141
-779.662
-747.926
-678.845
-580.423
-480.171
-415.682
-396.762
-377.524
-342.215
-292.64
-261.963
122.487
149.7
179.628
211.572
242.9
274.217
304.496
331.745
355.509
376.209
393.819
408.434
420.593
430.741
439.15
446.142
451.847
456.392
459.715
461.749
462.273
461.037
457.683
451.834
443.294
432.088
418.198
401.595
382.299
360.397
336.009
309.288
280.335
249.259
215.948
180.283
141.383
98.1371
47.2424
94.6989
66.78
36.2598
5.07763
-25.2814
-56.421
-87.2857
-117.287
-146.758
-175.47
-203.594
-231.883
-260.674
-290.051
-320.038
-350.662
-381.996
-414.077
-446.915
-480.493
-514.7
-549.288
-583.882
-617.845
-650.25
-679.528
-702.909
-715.649
-710.592
-680.296
-620.501
-537.713
-453.587
-401.363
-390.498
-379.931
-351.164
-306.633
-278.652
121.522
147.665
176.387
207.087
237.12
267.126
296.118
322.198
344.942
364.745
381.566
395.506
407.106
416.759
424.795
431.46
436.97
441.376
444.709
446.849
447.639
446.818
444.042
438.937
431.297
421.117
408.358
392.951
374.886
354.207
331
305.372
277.405
247.174
214.558
179.396
140.849
97.6682
47.2022
94.6525
67.8039
38.4823
8.46956
-20.676
-50.682
-80.3328
-109.112
-137.432
-164.966
-191.84
-218.762
-246.142
-274.079
-302.579
-331.65
-361.341
-391.668
-422.601
-454.069
-485.902
-517.777
-549.185
-579.429
-607.559
-631.996
-650.046
-657.696
-649.763
-621.111
-568.917
-499.316
-429.6
-388.735
-384.771
-381.81
-358.98
-319.651
-294.917
120.429
145.511
173.105
202.529
231.336
260.085
287.804
312.754
334.511
353.439
369.493
382.78
393.825
403.016
410.645
417.006
422.286
426.562
429.84
432.054
433.049
432.575
430.301
425.86
419.034
409.802
398.102
383.838
366.967
347.493
325.468
300.961
274.022
244.695
212.848
178.275
140.188
97.2308
47.3997
94.4756
68.717
40.5091
11.6762
-16.3687
-45.1279
-73.6088
-101.261
-128.366
-154.733
-180.378
-205.958
-231.939
-258.44
-285.451
-312.961
-341.001
-369.562
-398.583
-427.948
-457.431
-486.662
-515.063
-541.897
-566.243
-586.65
-600.663
-604.883
-595.44
-568.738
-523.061
-464.334
-407.305
-377.031
-379.355
-383.002
-365.823
-332.881
-312.838
119.216
143.282
169.73
197.979
225.561
253.062
279.582
303.437
324.235
342.302
357.607
370.257
380.758
389.486
396.725
402.777
407.824
411.936
415.138
417.385
418.538
418.341
416.502
412.649
406.554
398.186
387.469
374.282
358.551
340.249
319.39
296.002
270.113
241.718
210.687
176.756
139.199
96.5809
47.4485
94.186
69.4458
42.3938
14.6902
-12.1808
-39.8409
-67.1341
-93.5853
-119.553
-144.756
-169.191
-193.462
-218.059
-243.127
-268.654
-294.609
-321.003
-347.805
-374.928
-402.221
-429.417
-456.117
-481.72
-505.48
-526.531
-543.576
-554.481
-556.421
-546.47
-522.022
-482.121
-432.761
-386.902
-366.277
-374.224
-383.271
-371.95
-348.091
-334.97
117.925
140.982
166.359
193.393
219.814
246.125
271.45
294.249
314.108
331.339
345.907
357.934
367.904
376.175
383.032
388.773
393.58
397.516
400.622
402.88
404.113
404.154
402.682
399.343
393.901
386.318
376.51
364.335
349.693
332.526
312.817
290.557
265.741
238.329
208.176
174.979
138.064
95.944
47.7197
93.8111
70.1137
44.1336
17.5658
-8.24408
-34.6823
-60.8454
-86.1877
-110.964
-135
-158.255
-181.252
-204.484
-228.134
-252.19
-276.606
-301.371
-326.435
-351.691
-376.964
-401.96
-426.268
-449.286
-470.303
-488.54
-502.811
-511.293
-511.7
-501.831
-479.704
-444.897
-403.68
-367.835
-355.931
-368.983
-382.63
-378.631
-367.941
-365.201
116.554
138.646
162.929
188.85
214.107
239.238
263.438
285.207
304.146
320.554
334.403
345.816
355.263
363.087
369.568
375
379.562
383.315
386.324
388.521
389.829
390.039
388.876
385.983
381.117
374.242
365.265
354.031
340.416
324.336
305.742
284.592
260.85
234.438
205.2
172.787
136.582
95.0763
47.8078
93.3519
70.6329
45.7682
20.289
-4.37568
-29.7575
-54.7618
-78.922
-102.597
-125.474
-147.567
-169.318
-191.208
-213.463
-236.07
-258.969
-282.133
-305.494
-328.934
-352.257
-375.165
-397.234
-417.897
-436.486
-452.324
-464.346
-470.982
-470.414
-461.022
-441.209
-411.015
-376.989
-350.252
-346.215
-363.632
-381.26
-386.778
-393.222
-403.254
115.141
136.27
159.537
184.299
208.457
232.463
255.539
276.299
294.346
309.948
323.095
333.906
342.837
350.224
356.335
361.464
365.777
369.348
372.22
374.365
375.688
376.022
375.116
372.601
368.242
362
353.781
343.42
330.772
315.731
298.221
278.17
255.512
230.134
201.865
170.322
134.936
94.1981
48.088
92.8378
71.1257
47.2856
22.9113
-0.731966
-24.9256
-48.8239
-71.9187
-94.4189
-116.162
-137.114
-157.647
-178.226
-199.113
-220.302
-241.718
-263.318
-285.026
-306.709
-328.171
-349.106
-369.101
-387.624
-404.084
-417.901
-428.135
-433.387
-432.255
-423.54
-405.914
-379.874
-352.3
-333.823
-336.835
-357.908
-379.602
-397.196
-422.529
-445.442
113.676
133.887
156.111
179.817
202.869
225.759
247.77
267.55
284.718
299.533
311.987
322.204
330.631
337.594
343.337
348.17
352.229
355.611
358.337
360.404
361.704
362.145
361.428
359.232
355.317
349.639
342.104
332.542
320.794
306.736
290.264
271.282
249.692
225.352
198.074
167.447
132.942
93.0787
48.1489
92.2703
71.4898
48.7281
25.4054
2.86926
-20.3058
-43.0783
-65.0239
-86.451
-107.079
-126.903
-146.25
-165.551
-185.102
-204.904
-224.876
-244.959
-265.069
-285.073
-304.77
-323.858
-341.95
-358.551
-373.153
-385.262
-394.076
-398.348
-396.981
-389.082
-373.529
-351.355
-329.723
-318.784
-327.999
-352.003
-378.089
-409.181
-450.823
-482.426
112.193
131.488
152.744
175.345
197.357
219.18
240.125
258.949
275.258
289.304
301.08
310.723
318.672
325.181
330.605
335.103
338.945
342.091
344.702
346.628
347.944
348.402
347.847
345.911
342.38
337.199
330.277
321.444
310.533
297.402
281.928
263.99
243.463
220.181
193.935
164.298
130.776
91.921
48.3665
91.6677
71.8492
50.0733
27.8122
6.25818
-15.7555
-37.4705
-58.3788
-78.6736
-98.2024
-116.931
-135.121
-153.184
-171.438
-189.893
-208.464
-227.084
-245.665
-264.072
-282.106
-299.476
-315.826
-330.705
-343.695
-354.39
-362.09
-365.712
-364.354
-357.337
-343.747
-325.192
-309.041
-304.925
-319.499
-345.896
-376.95
-421.07
-472.224
-506.707
110.679
129.1
149.36
170.96
191.921
212.685
232.624
250.51
265.982
279.272
290.388
299.478
306.914
313.056
318.064
322.336
325.856
328.868
331.25
333.135
334.346
334.849
334.397
332.673
329.466
324.72
318.346
310.173
300.032
287.766
273.236
256.301
236.812
214.58
189.376
160.765
128.277
90.5221
48.3321
91.0191
72.0933
51.3539
30.1028
9.62609
-11.4162
-32.0408
-51.8326
-71.1055
-89.5542
-107.211
-124.276
-141.14
-158.137
-175.288
-192.508
-209.725
-226.849
-243.744
-260.221
-276.001
-290.764
-304.118
-315.714
-325.237
-332.065
-335.28
-334.14
-328.057
-316.381
-301.329
-290.344
-292.381
-311.516
-339.864
-375.979
-430.145
-481.917
-515.63
109.162
126.711
146.054
166.6
186.574
206.329
225.254
242.228
256.882
269.436
279.91
288.446
295.422
301.123
305.822
309.76
313.075
315.836
318.096
319.832
320.996
321.489
321.1
319.545
316.61
312.241
306.352
298.774
289.337
277.878
264.244
248.277
229.808
208.631
184.501
156.974
125.606
89.0638
48.4256
90.3495
72.3481
52.5441
32.3198
12.7808
-7.13988
-26.7387
-45.5484
-63.7213
-81.1234
-97.7389
-113.716
-129.426
-145.212
-161.106
-177.027
-192.906
-208.647
-224.118
-239.137
-253.454
-266.775
-278.779
-289.174
-297.739
-303.916
-306.909
-306.143
-301.065
-291.295
-279.596
-273.449
-280.985
-303.897
-333.842
-374.499
-434.272
-480.25
-518.048
107.626
124.346
142.741
162.337
181.313
200.066
218.037
234.118
247.97
259.804
269.648
277.644
284.151
289.448
293.812
297.459
300.527
303.081
305.173
306.788
307.873
308.328
307.984
306.561
303.844
299.803
294.343
287.298
278.499
267.785
254.99
239.943
222.461
202.321
179.263
152.843
122.636
87.3757
48.246
89.65
72.4924
53.6827
34.4253
15.9175
-3.07512
-21.6256
-39.3625
-56.5529
-72.9377
-88.5295
-103.461
-118.059
-132.682
-147.367
-162.047
-176.648
-191.078
-205.208
-218.868
-231.838
-243.86
-254.672
-264.039
-271.812
-277.519
-280.441
-280.135
-276.122
-268.329
-259.95
-258.341
-270.739
-296.669
-327.803
-371.655
-432.422
-471.775
-527.786
106.098
121.989
139.513
158.106
176.151
193.949
210.96
226.172
239.244
250.376
259.604
267.07
273.121
278.026
282.058
285.419
288.242
290.59
292.511
293.997
294.986
295.402
295.082
293.73
291.201
287.44
282.356
275.784
267.565
257.535
245.526
231.358
214.835
195.724
173.754
148.485
119.505
85.6143
48.1703
88.936
72.6549
54.7378
36.4552
18.8385
0.928523
-16.6534
-33.4456
-49.5921
-64.9803
-79.5875
-93.5107
-107.048
-120.555
-134.087
-147.579
-160.965
-174.152
-187.018
-199.416
-211.145
-222
-231.751
-240.248
-247.376
-252.762
-255.769
-255.998
-253.101
-247.344
-242.227
-244.842
-261.449
-289.628
-321.448
-366.716
-425.539
-464.3
-559.39
104.556
119.662
136.284
153.982
171.082
187.934
204.043
218.406
230.715
241.159
249.783
256.733
262.336
266.86
270.566
273.647
276.229
278.371
280.121
281.471
282.362
282.731
282.383
281.098
278.712
275.185
270.432
264.282
256.586
247.184
235.905
222.565
206.96
188.85
167.957
143.845
116.117
83.6434
47.8108
88.1874
72.7093
55.739
38.3741
21.7473
4.70888
-11.8733
-27.6384
-42.8681
-57.2824
-70.9313
-83.8834
-96.4058
-108.847
-121.277
-133.638
-145.868
-157.874
-169.553
-180.774
-191.368
-201.167
-209.991
-217.738
-224.345
-229.501
-232.704
-233.559
-231.817
-228.183
-226.29
-232.812
-252.944
-282.675
-314.557
-359.368
-415.466
-463.119
-613.376
103.026
117.348
133.15
149.898
166.121
182.073
197.272
210.811
222.378
232.155
240.191
246.633
251.804
255.955
259.343
262.148
264.494
266.432
268.013
269.223
270.013
270.306
269.935
268.68
266.395
263.073
258.602
252.827
245.603
236.775
226.175
213.618
198.896
181.767
161.951
139.02
112.589
81.59
47.5363
87.4267
72.7847
56.653
40.2203
24.4323
8.42196
-7.23579
-22.1254
-36.3588
-49.842
-62.5632
-74.5814
-86.1359
-97.5629
-108.945
-120.231
-131.359
-142.249
-152.811
-162.939
-172.491
-181.327
-189.336
-196.421
-202.607
-207.625
-211.057
-212.622
-212.099
-210.6
-211.881
-221.968
-244.882
-275.49
-306.636
-349.478
-403.862
-468.54
-677.012
101.486
115.068
130.02
145.925
161.258
176.317
190.666
203.402
214.244
223.369
230.831
236.782
241.528
245.317
248.395
250.93
253.044
254.781
256.192
257.26
257.94
258.154
257.74
256.485
254.296
251.134
246.902
241.463
234.669
226.366
216.394
204.571
190.689
174.507
155.746
133.986
108.857
79.3586
46.9708
86.6396
72.7487
57.516
41.9508
27.0973
11.9054
-2.80991
-16.7347
-30.1034
-42.6872
-54.502
-65.6254
-76.2541
-86.716
-97.1
-107.363
-117.446
-127.281
-136.792
-145.901
-154.492
-162.454
-169.72
-176.253
-182.045
-186.958
-190.649
-192.912
-193.694
-194.272
-198.555
-211.839
-236.784
-267.551
-297.062
-336.862
-390.627
-474.195
-723.773
99.9604
112.806
126.987
141.996
156.507
170.719
184.212
196.169
206.309
214.802
221.707
227.178
231.517
234.952
237.728
240.001
241.888
243.427
244.67
245.593
246.157
246.286
245.814
244.566
242.438
239.392
235.371
230.226
223.818
215.996
206.607
195.472
182.392
167.13
149.409
128.823
105.017
77.0425
46.4763
85.8407
72.7323
58.2906
43.5986
29.5305
15.3149
1.4536
-11.6453
-24.0915
-35.8022
-46.7574
-57.0197
-66.7697
-76.3133
-85.7497
-95.039
-104.132
-112.97
-121.498
-129.651
-137.349
-144.501
-151.081
-157.081
-162.488
-167.327
-171.297
-174.151
-176.166
-178.742
-185.72
-201.698
-227.941
-257.985
-284.995
-320.803
-373.466
-469.687
-730.033
98.4257
110.579
123.96
138.181
151.856
165.231
177.926
189.127
198.583
206.462
212.825
217.833
221.77
224.865
227.347
229.365
231.032
232.377
233.453
234.232
234.679
234.717
234.191
232.932
230.828
227.884
224.036
219.154
213.093
205.713
196.867
186.381
174.062
159.684
142.972
123.538
101.039
74.593
45.6953
85.0078
72.6043
59.0056
45.1249
31.9398
18.4806
5.5017
-6.69377
-18.3496
-29.219
-39.3463
-48.7868
-57.6997
-66.3714
-74.9044
-83.2689
-91.423
-99.3224
-106.922
-114.176
-121.028
-127.417
-133.311
-138.815
-143.872
-148.514
-152.737
-156.138
-158.994
-163.238
-172.465
-190.462
-217.225
-245.662
-269.369
-299.968
-348.629
-445.36
-682.301
96.9069
108.371
121.032
134.412
147.32
159.905
171.796
182.267
191.063
198.348
204.188
208.744
212.299
215.061
217.259
219.03
220.481
221.637
222.549