/*--------------------------------*- C++ -*----------------------------------*\
| =========                 |                                                 |
| \\      /  F ield         | OpenFOAM: The Open Source CFD Toolbox           |
|  \\    /   O peration     | Version:  v1806                                 |
|   \\  /    A nd           | Web:      www.OpenFOAM.com                      |
|    \\/     M anipulation  |                                                 |
\*---------------------------------------------------------------------------*/
FoamFile
{
    version     2.0;
    format      ascii;
    class       surfaceScalarField;
    location    "100";
    object      phi;
}
// * * * * * * * * * * * * * * * * * * * * * * * * * * * * * * * * * * * * * //

dimensions      [0 3 -1 0 0 0 0];
oriented        oriented;


internalField   nonuniform List<scalar> 
21254
(
-0.487245
0.48966
-0.00233872
0.491277
-0.00168888
0.478906
0.0124104
0.455215
0.0236297
0.420432
0.0348044
0.36947
0.0509776
0.304154
0.0653552
0.228062
0.0762069
0.146239
0.081933
0.0695841
0.0768
0.00948154
0.0602976
-0.0304069
0.040062
-0.0506132
0.020274
-0.0567222
0.00609541
-0.0597145
0.00292688
-0.0596359
-0.000223512
-0.0556838
-0.00409264
-0.0500566
-0.00584373
-0.047968
-0.00223746
-0.054563
0.00634144
-0.0678256
0.0131112
-0.0838679
0.0157755
-0.10241
0.018646
-0.125006
0.0227716
-0.150931
0.025905
-0.177907
0.026262
-0.202736
0.024078
-0.221891
0.0189198
-0.229548
0.00788092
-0.222808
-0.00605626
-0.198781
-0.0218042
-0.157421
-0.0433105
-0.107318
-0.0490899
-0.0587429
-0.046542
-0.0170531
-0.042377
0.0237907
-0.0389316
0.0579006
-0.0321303
0.0901345
-0.0308291
0.155552
-0.0464246
-0.47548
-0.011829
-0.463167
-0.0122491
-0.440838
-0.0223531
-0.411406
-0.0294228
-0.376667
-0.0347658
-0.336082
-0.0406132
-0.290636
-0.0454639
-0.243397
-0.0472421
-0.197242
-0.046165
-0.153126
-0.044114
-0.112475
-0.0406601
-0.0760237
-0.0364476
-0.0435951
-0.0324265
-0.0142061
-0.0293424
0.0131132
-0.027256
0.038361
-0.0251618
0.061496
-0.0230738
0.0828862
-0.0212948
0.102901
-0.0199676
0.121961
-0.0189493
0.140298
-0.0183273
0.158199
-0.0178169
0.175537
-0.0175013
0.191916
-0.0166126
0.207086
-0.0153936
0.221308
-0.0143716
0.234573
-0.0132771
0.247013
-0.0123889
0.25884
-0.0114385
0.269522
-0.0110457
0.279802
-0.01025
0.289468
-0.00969467
0.298747
-0.00925013
0.307741
-0.0090319
0.316589
-0.00879144
0.324977
-0.00848899
0.333211
-0.00826273
0.335432
0.00151437
0.327731
0.00436697
-0.473181
0.489559
-0.0186672
0.505936
-0.018092
0.522338
-0.00395929
0.536026
0.0099001
0.545838
0.0250222
0.546912
0.0499092
0.5349
0.0774391
0.504007
0.107134
0.44829
0.1377
0.36716
0.157971
0.265445
0.162057
0.159082
0.146462
0.0673716
0.112027
0.0041143
0.069385
-0.0286327
0.0357008
-0.0435492
0.0146997
-0.0520662
0.00443473
-0.0582219
0.000293693
-0.0670567
0.00662201
-0.0806477
0.0199349
-0.0964253
0.0289789
-0.112943
0.0324126
-0.130948
0.0370033
-0.151342
0.0436553
-0.173094
0.0482182
-0.193832
0.0473648
-0.210652
0.0410233
-0.221148
0.0293829
-0.222658
0.00931303
-0.210373
-0.0180234
-0.178142
-0.0525437
-0.127863
-0.0944339
-0.0686845
-0.107505
-0.0127725
-0.101399
0.0331111
-0.0874136
0.0729583
-0.0772368
0.11009
-0.0673072
0.140912
-0.0606701
0.168787
-0.0662209
-0.454888
-0.0301241
-0.434796
-0.0322918
-0.409754
-0.0474178
-0.380781
-0.0583928
-0.34725
-0.0683346
-0.309332
-0.0785547
-0.268562
-0.0862412
-0.226491
-0.0893154
-0.184916
-0.0877412
-0.144589
-0.0844368
-0.106548
-0.0787021
-0.0712941
-0.0716917
-0.0387229
-0.0649962
-0.0086874
-0.0593585
0.0187604
-0.054689
0.0440604
-0.0504052
0.0676139
-0.0465692
0.0897427
-0.0433298
0.110735
-0.0408847
0.13088
-0.0389859
0.150368
-0.0377618
0.16946
-0.0368326
0.188045
-0.0361707
0.205841
-0.0345445
0.222533
-0.0322714
0.238311
-0.0302864
0.253168
-0.0282408
0.267185
-0.0264241
0.280571
-0.0246068
0.29278
-0.0235492
0.304505
-0.0220281
0.315587
-0.0209016
0.326206
-0.0199636
0.336464
-0.0194544
0.346525
-0.0189229
0.35606
-0.0183353
0.365567
-0.0180278
0.369482
0.000526366
0.36419
0.00648903
-0.461821
0.475456
-0.0324173
0.486513
-0.0290789
0.495478
-0.0130001
0.5023
0.00312486
0.508534
0.0187887
0.516714
0.0417845
0.526689
0.067491
0.536049
0.0978337
0.536167
0.137612
0.515927
0.178235
0.463427
0.21457
0.376352
0.233542
0.264722
0.223645
0.150771
0.183308
0.0601207
0.126296
0.00330292
0.0714295
-0.026774
0.0343769
-0.0448781
0.0182306
-0.0598729
0.021434
-0.0748361
0.0347035
-0.0895412
0.0434829
-0.103793
0.046425
-0.118998
0.0520611
-0.136523
0.061057
-0.15616
0.067508
-0.176638
0.0670607
-0.195531
0.0590884
-0.209214
0.0427457
-0.212364
0.0127968
-0.197999
-0.0318511
-0.16136
-0.0881654
-0.106183
-0.150547
-0.0426714
-0.170638
0.0164957
-0.159896
0.0651444
-0.136781
0.107294
-0.119184
0.147976
-0.107672
0.181742
-0.0939881
0.197227
-0.0725361
-0.445971
-0.0458809
-0.425828
-0.0524838
-0.399265
-0.0739483
-0.369088
-0.0886146
-0.334973
-0.102473
-0.296723
-0.116818
-0.255924
-0.127038
-0.215318
-0.129922
-0.175259
-0.127791
-0.136356
-0.12334
-0.0997186
-0.115327
-0.0653693
-0.106038
-0.0332682
-0.097071
-0.00347105
-0.0891254
0.0241337
-0.0822421
0.049814
-0.0760496
0.0739425
-0.0706512
0.0967713
-0.0661149
0.118544
-0.06261
0.139498
-0.0598866
0.159845
-0.0580801
0.179766
-0.0567255
0.199178
-0.0556859
0.217874
-0.0534255
0.235556
-0.0501668
0.252296
-0.0471618
0.268163
-0.0441854
0.283227
-0.0414308
0.297738
-0.038813
0.311115
-0.0371907
0.324099
-0.0349595
0.336474
-0.0332742
0.348495
-0.0319248
0.360207
-0.0311498
0.371779
-0.0304374
0.382877
-0.0294518
0.39365
-0.0287262
0.400028
-0.00303878
0.394387
0.00985724
-0.454486
0.471911
-0.0497696
0.487319
-0.0445367
0.501977
-0.027632
0.513325
-0.00822442
0.521342
0.0107931
0.525993
0.0371889
0.529459
0.0640839
0.533837
0.0934611
0.541666
0.129805
0.54963
0.17028
0.545902
0.218293
0.513481
0.265957
0.440124
0.296991
0.329539
0.293897
0.205626
0.250219
0.0984563
0.178639
0.0256983
0.107179
-0.0161968
0.0601862
-0.0413485
0.0466327
-0.05942
0.0528394
-0.0741264
0.0582637
-0.0872908
0.0597308
-0.101458
0.0664825
-0.118879
0.078871
-0.139806
0.0888964
-0.162919
0.090634
-0.185105
0.0815673
-0.2014
0.0591657
-0.205214
0.0165587
-0.188979
-0.0479422
-0.148919
-0.127461
-0.089733
-0.209986
-0.0225725
-0.237236
0.0395749
-0.221391
0.0908267
-0.187254
0.135445
-0.162781
0.179316
-0.150244
0.216184
-0.130253
0.231708
-0.0838239
-0.436321
-0.0640844
-0.415015
-0.073776
-0.387452
-0.101553
-0.356715
-0.11938
-0.322216
-0.136992
-0.283672
-0.155364
-0.243251
-0.167455
-0.203354
-0.169809
-0.164374
-0.166761
-0.126727
-0.160977
-0.0912994
-0.150739
-0.0580124
-0.139313
-0.0265549
-0.128502
0.00288216
-0.118547
0.0303798
-0.109705
0.0563109
-0.101956
0.08085
-0.0951352
0.10423
-0.0894469
0.126675
-0.0849781
0.148396
-0.0815464
0.169534
-0.0791477
0.190261
-0.0774179
0.210536
-0.0759845
0.230126
-0.0731186
0.248732
-0.0689013
0.266397
-0.0649796
0.283169
-0.0610831
0.29913
-0.0574621
0.314478
-0.0540309
0.328742
-0.0516853
0.342573
-0.0488754
0.355835
-0.0466761
0.36873
-0.0449529
0.381371
-0.043974
0.393898
-0.0431112
0.406006
-0.0419166
0.417735
-0.0407764
0.426162
-0.00945074
0.421487
0.0119854
-0.454939
0.473402
-0.0681734
0.489906
-0.0610368
0.506207
-0.0439258
0.51827
-0.0202772
0.527973
0.00115969
0.534635
0.0305584
0.538769
0.0599558
0.540829
0.0914482
0.543752
0.126885
0.550022
0.164002
0.55996
0.208342
0.564061
0.261829
0.543085
0.317947
0.477378
0.359576
0.366612
0.360957
0.234745
0.31046
0.116966
0.224885
0.0354388
0.141593
-0.0113855
0.0933013
-0.0381253
0.0793749
-0.055519
0.0754377
-0.0690342
0.0729869
-0.0833656
0.080588
-0.101978
0.0972267
-0.125243
0.111743
-0.151334
0.115974
-0.176485
0.105879
-0.195001
0.0772354
-0.199587
0.0213224
-0.182117
-0.0648847
-0.139332
-0.169772
-0.0766296
-0.273168
-0.00609364
-0.307569
0.0587546
-0.285915
0.112362
-0.241585
0.159406
-0.209924
0.206375
-0.197174
0.2467
-0.170201
0.266468
-0.0968213
-0.434968
-0.0840838
-0.412115
-0.0966444
-0.382146
-0.131566
-0.349697
-0.151864
-0.313626
-0.17307
-0.2738
-0.195182
-0.232403
-0.208846
-0.192099
-0.210099
-0.153358
-0.205495
-0.116315
-0.198001
-0.0816045
-0.185443
-0.0491766
-0.171717
-0.018442
-0.159221
0.0105377
-0.147484
0.0378362
-0.136975
0.0637793
-0.127855
0.0885741
-0.1199
0.112405
-0.113229
0.135429
-0.107967
0.157824
-0.103888
0.179731
-0.101032
0.201255
-0.0989114
0.222375
-0.0971764
0.242865
-0.0937166
0.262416
-0.0886506
0.281017
-0.0837258
0.298709
-0.0789133
0.315578
-0.0743147
0.331815
-0.0700992
0.346946
-0.0669493
0.361585
-0.0634732
0.375668
-0.0607154
0.389374
-0.0586029
0.402782
-0.0573045
0.416113
-0.0564095
0.429032
-0.0547836
0.441515
-0.0531447
0.451227
-0.0174307
0.448172
0.0141641
-0.456637
0.476815
-0.0883552
0.495948
-0.0801549
0.514667
-0.0625916
0.529499
-0.0350672
0.541606
-0.0109355
0.551277
0.020942
0.557421
0.0538628
0.560902
0.0879449
0.561782
0.12601
0.562214
0.163553
0.565812
0.204718
0.574651
0.252959
0.58157
0.311007
0.564529
0.376599
0.499517
0.42597
0.38398
0.426005
0.244166
0.364735
0.120467
0.265343
0.037698
0.176158
-0.00786227
0.125021
-0.0328738
0.100568
-0.0488985
0.0891567
-0.0642936
0.0962316
-0.0846911
0.117943
-0.11075
0.138235
-0.140044
0.14572
-0.168231
0.1345
-0.18914
0.0983641
-0.194931
0.0271822
-0.176654
-0.0831224
-0.1315
-0.214491
-0.0657262
-0.338949
0.00778968
-0.380574
0.0750387
-0.352578
0.130738
-0.2965
0.180083
-0.258342
0.23026
-0.246302
0.274429
-0.213843
0.299845
-0.119637
-0.435012
-0.105708
-0.410782
-0.120912
-0.378809
-0.163604
-0.344339
-0.18635
-0.306446
-0.210961
-0.26496
-0.236665
-0.222218
-0.251572
-0.18117
-0.251136
-0.14217
-0.244479
-0.105208
-0.234946
-0.070921
-0.219712
-0.0390627
-0.203551
-0.00891064
-0.189351
0.0195585
-0.175919
0.046562
-0.163954
0.0724294
-0.153685
0.09736
-0.144797
0.121492
-0.137308
0.144995
-0.131419
0.167988
-0.12682
0.19058
-0.123572
0.212867
-0.121161
0.23482
-0.119129
0.256239
-0.115194
0.276759
-0.10926
0.296287
-0.1034
0.314943
-0.0977031
0.332733
-0.0922327
0.349882
-0.0871702
0.36593
-0.0831949
0.381445
-0.0791094
0.396367
-0.0757959
0.410875
-0.0732702
0.425133
-0.0717659
0.439225
-0.0707124
0.452967
-0.0689178
0.466194
-0.0667449
0.477082
-0.027281
0.475856
0.0135697
-0.461831
0.484042
-0.110651
0.504634
-0.100663
0.525577
-0.0835228
0.542364
-0.0518312
0.556358
-0.024845
0.567525
0.00978361
0.575743
0.045629
0.581052
0.0826762
0.584032
0.123012
0.584514
0.163049
0.583526
0.205669
0.585278
0.251176
0.593398
0.302851
0.600776
0.369196
0.582903
0.443811
0.512127
0.496751
0.387033
0.48978
0.240462
0.411844
0.116979
0.299529
0.0389361
0.202901
-0.00258861
0.141866
-0.0251483
0.111455
-0.0429896
0.113796
-0.0656266
0.140288
-0.0948515
0.167028
-0.127722
0.177952
-0.159289
0.165248
-0.18295
0.121462
-0.190455
0.0345974
-0.171834
-0.101373
-0.12457
-0.261484
-0.0560826
-0.407692
0.0199547
-0.456476
0.089163
-0.421649
0.146603
-0.354767
0.198196
-0.310117
0.251731
-0.300131
0.300261
-0.261981
0.331566
-0.145724
-0.438278
-0.129249
-0.412191
-0.147096
-0.377958
-0.197867
-0.341318
-0.22302
-0.301386
-0.250893
-0.257675
-0.280359
-0.213156
-0.29608
-0.170776
-0.293506
-0.130959
-0.284279
-0.093496
-0.272398
-0.0592954
-0.253886
-0.0277181
-0.235113
0.00200822
-0.219039
0.0300005
-0.20389
0.0566445
-0.190558
0.0823709
-0.179388
0.107291
-0.169674
0.131616
-0.161607
0.155487
-0.155238
0.179005
-0.150313
0.20224
-0.146753
0.22525
-0.144173
0.248037
-0.141908
0.270346
-0.137614
0.291834
-0.130834
0.312354
-0.124131
0.33197
-0.117423
0.350723
-0.111113
0.368803
-0.105082
0.3858
-0.10034
0.402201
-0.0954456
0.418015
-0.0915655
0.433417
-0.0885777
0.448488
-0.0867485
0.463449
-0.0856202
0.478019
-0.0834184
0.492039
-0.0805692
0.50415
-0.0384191
0.504834
0.0128643
-0.46864
0.492934
-0.134759
0.515634
-0.123344
0.538947
-0.106765
0.557465
-0.0702766
0.57338
-0.0407884
0.58645
-0.00324452
0.596228
0.0358884
0.603407
0.0754599
0.607597
0.118812
0.60977
0.160849
0.609543
0.205861
0.607416
0.253273
0.607835
0.302403
0.615685
0.361331
0.622513
0.43697
0.59931
0.51996
0.517676
0.571425
0.381664
0.547898
0.231875
0.449378
0.113775
0.321102
0.042637
0.213128
0.00551428
0.148764
-0.0178476
0.13739
-0.0434457
0.166207
-0.0762026
0.200159
-0.11309
0.215297
-0.148456
0.201069
-0.17532
0.148668
-0.185139
0.0446178
-0.166779
-0.1197
-0.117759
-0.310225
-0.0469169
-0.478475
0.0310938
-0.53401
0.101732
-0.491709
0.160601
-0.41286
0.214416
-0.363029
0.271437
-0.356265
0.3247
-0.314732
0.362021
-0.181346
-0.443421
-0.154584
-0.415548
-0.174983
-0.378701
-0.234798
-0.339585
-0.26215
-0.297278
-0.293195
-0.25127
-0.326362
-0.204563
-0.342774
-0.160436
-0.337616
-0.119487
-0.325214
-0.0813653
-0.310498
-0.0467987
-0.288429
-0.0152626
-0.266618
0.0141895
-0.248461
0.0417975
-0.231467
0.0681578
-0.216891
0.0936464
-0.204846
0.118504
-0.194501
0.142931
-0.185991
0.167069
-0.179336
0.191011
-0.174202
0.214804
-0.170505
0.238502
-0.167829
0.262095
-0.16549
0.28531
-0.160848
0.307764
-0.153346
0.329274
-0.145755
0.349889
-0.138171
0.369638
-0.131006
0.388691
-0.124099
0.406652
-0.118478
0.424005
-0.112976
0.440739
-0.108486
0.457044
-0.10507
0.473026
-0.102954
0.488824
-0.101689
0.504275
-0.0992938
0.519155
-0.0958739
0.532521
-0.0514231
0.535325
0.00860571
-0.477908
0.503929
-0.160853
0.528684
-0.148014
0.554187
-0.132192
0.574552
-0.0906474
0.59254
-0.0587021
0.607348
-0.0180733
0.61876
0.0244555
0.626977
0.0672744
0.632732
0.113036
0.636152
0.157393
0.637327
0.204658
0.63596
0.254605
0.63292
0.30542
0.633053
0.361168
0.641582
0.428422
0.646618
0.514893
0.61418
0.603834
0.518235
0.643792
0.372294
0.59525
0.223597
0.469682
0.113248
0.323312
0.0492864
0.212487
0.0136839
0.172742
-0.0167431
0.196335
-0.0534277
0.236493
-0.094734
0.256039
-0.134345
0.24002
-0.164892
0.178516
-0.177768
0.0571255
-0.160476
-0.136903
-0.110292
-0.360368
-0.0375407
-0.55129
0.0418595
-0.613357
0.113351
-0.563176
0.173357
-0.473757
0.22939
-0.419395
0.290058
-0.417409
0.348397
-0.372696
0.391742
-0.220298
-0.450355
-0.182119
-0.420471
-0.204969
-0.38097
-0.274338
-0.339525
-0.303623
-0.294482
-0.338235
-0.245793
-0.37503
-0.196395
-0.392162
-0.150359
-0.383642
-0.107885
-0.367677
-0.0686435
-0.349717
-0.0335188
-0.323532
-0.00174715
-0.298351
0.0276502
-0.277833
0.055034
-0.258816
0.0810729
-0.24291
0.106356
-0.230095
0.13104
-0.219164
0.155514
-0.210425
0.17983
-0.203629
0.204124
-0.198449
0.228418
-0.194781
0.252759
-0.19213
0.277096
-0.189841
0.301219
-0.184986
0.324661
-0.176886
0.347157
-0.168356
0.368789
-0.159975
0.389531
-0.151848
0.409603
-0.144105
0.428593
-0.137547
0.446908
-0.131336
0.464624
-0.126115
0.481861
-0.122216
0.49878
-0.11973
0.515521
-0.118389
0.531922
-0.115554
0.547671
-0.111406
0.562375
-0.0654869
0.567479
0.00416196
-0.488396
0.516768
-0.189151
0.543601
-0.174755
0.571546
-0.160089
0.593749
-0.11279
0.613177
-0.078182
0.629866
-0.0347229
0.642765
0.0115897
0.652396
0.0575954
0.659282
0.106138
0.663661
0.152989
0.665961
0.202334
0.666421
0.254119
0.664006
0.307818
0.659903
0.365255
0.66108
0.42724
0.670993
0.504978
0.671841
0.603
0.625975
0.689682
0.514189
0.707085
0.360726
0.623219
0.215461
0.468694
0.114176
0.313941
0.0559735
0.231181
0.0162355
0.236374
-0.0251692
0.278256
-0.0711126
0.302422
-0.115325
0.2847
-0.150021
0.213631
-0.166759
0.0742163
-0.151688
-0.151891
-0.101199
-0.410626
-0.0271536
-0.625306
0.0529386
-0.693082
0.124646
-0.634297
0.185467
-0.533808
0.243676
-0.47668
0.308047
-0.480978
0.371633
-0.435746
0.421094
-0.268548
-0.459109
-0.211472
-0.427044
-0.237094
-0.384633
-0.316818
-0.340232
-0.348024
-0.292586
-0.385871
-0.240761
-0.426854
-0.188718
-0.44419
-0.140319
-0.432033
-0.09607
-0.411909
-0.0553688
-0.390399
-0.0193506
-0.359511
0.0127803
-0.33045
0.0422834
-0.307295
0.0696094
-0.28612
0.0954395
-0.268708
0.120456
-0.255095
0.14507
-0.243743
0.169451
-0.234785
0.193897
-0.22803
0.218458
-0.222981
0.24318
-0.219453
0.268095
-0.217018
0.29319
-0.214898
0.318185
-0.209991
0.34257
-0.201279
0.366086
-0.191962
0.388732
-0.182706
0.410526
-0.173785
0.431621
-0.165175
0.451661
-0.157764
0.471016
-0.150905
0.489717
-0.145061
0.507967
-0.140688
0.525878
-0.137894
0.543576
-0.136401
0.560948
-0.133382
0.577713
-0.128646
0.593852
-0.0817226
0.601323
-0.00462272
-0.500798
0.531235
-0.219468
0.560039
-0.203492
0.590363
-0.190356
0.614743
-0.13719
0.63621
-0.0995815
0.654588
-0.0531329
0.668622
-0.00247971
0.679751
0.0465068
0.687792
0.0980698
0.693196
0.14757
0.696191
0.199314
0.697346
0.252951
0.696714
0.308428
0.693372
0.368586
0.689099
0.431491
0.692307
0.501756
0.703377
0.591901
0.696523
0.696509
0.633108
0.770446
0.504011
0.752248
0.344178
0.628401
0.205467
0.452495
0.11452
0.321904
0.0581982
0.29249
0.00998813
0.326152
-0.0407061
0.352742
-0.0896674
0.33306
-0.128826
0.252115
-0.150237
0.0949579
-0.138785
-0.163689
-0.0892983
-0.46017
-0.0149067
-0.699867
0.065046
-0.772927
0.136269
-0.705634
0.197485
-0.595888
0.257776
-0.537433
0.325823
-0.549718
0.394845
-0.50441
0.450433
-0.320365
-0.469107
-0.243227
-0.434933
-0.271328
-0.389452
-0.362324
-0.34212
-0.395377
-0.291276
-0.436711
-0.236402
-0.481704
-0.181269
-0.499319
-0.130297
-0.482999
-0.0838668
-0.458329
-0.041679
-0.432564
-0.00450344
-0.39665
0.0283255
-0.363239
0.0581756
-0.337111
0.0854764
-0.313394
0.111182
-0.294392
0.136096
-0.279988
0.160521
-0.268146
0.184891
-0.259132
0.209358
-0.252469
0.234114
-0.247711
0.259198
-0.244503
0.284635
-0.242435
0.310443
-0.240679
0.336285
-0.235851
0.361632
-0.226639
0.386142
-0.216573
0.409848
-0.206487
0.432691
-0.196765
0.454862
-0.187268
0.475985
-0.178997
0.496376
-0.171342
0.51616
-0.164861
0.535441
-0.159826
0.554391
-0.156702
0.573099
-0.155007
0.591549
-0.151675
0.609363
-0.146151
0.626962
-0.0988768
0.637029
-0.0137286
-0.514416
0.54728
-0.25231
0.578368
-0.234517
0.611165
-0.223133
0.637386
-0.163368
0.660676
-0.122939
0.680859
-0.0732855
0.696721
-0.0183078
0.70897
0.0342086
0.718103
0.0889412
0.724387
0.141279
0.728322
0.195371
0.730304
0.250959
0.730432
0.308294
0.728632
0.370379
0.724194
0.435928
0.720828
0.505125
0.727087
0.585654
0.737086
0.68653
0.716596
0.790975
0.630599
0.838302
0.483101
0.775994
0.321008
0.614727
0.19397
0.449154
0.112872
0.373854
0.0538354
0.385526
-0.00212188
0.409107
-0.0555801
0.386984
-0.0992933
0.296298
-0.125886
0.122025
-0.119675
-0.169684
-0.0730706
-0.506523
0.000187375
-0.773141
0.0789393
-0.851493
0.148858
-0.775052
0.209966
-0.656218
0.272101
-0.598615
0.343712
-0.620558
0.418093
-0.578242
0.479836
-0.381343
-0.480509
-0.277138
-0.443787
-0.308086
-0.39528
-0.410878
-0.344719
-0.445929
-0.290662
-0.490756
-0.232442
-0.539925
-0.173905
-0.557846
-0.120187
-0.536707
-0.0714708
-0.507035
-0.0272903
-0.476709
0.0112997
-0.435204
0.0449633
-0.396852
0.0751643
-0.367283
0.102746
-0.340942
0.128462
-0.320095
0.153243
-0.30474
0.177561
-0.292452
0.201818
-0.283356
0.226323
-0.276956
0.251211
-0.272556
0.276573
-0.269841
0.302491
-0.268303
0.328963
-0.26713
0.355651
-0.262506
0.381924
-0.252918
0.407442
-0.242117
0.432182
-0.23129
0.456118
-0.22078
0.479343
-0.210499
0.5016
-0.201396
0.523096
-0.19309
0.54396
-0.186006
0.564351
-0.18051
0.584361
-0.177006
0.604159
-0.175166
0.623715
-0.171709
0.642662
-0.165625
0.661921
-0.11858
0.674697
-0.0278635
-0.529696
0.564671
-0.2872
0.598116
-0.267951
0.633543
-0.258531
0.661994
-0.191857
0.687333
-0.148217
0.709219
-0.0952122
0.726556
-0.035671
0.740261
0.0205572
0.750333
0.0788718
0.757575
0.134031
0.762204
0.190743
0.764711
0.248443
0.765611
0.307393
0.764974
0.371006
0.762086
0.438811
0.756736
0.510459
0.75529
0.58709
0.764612
0.677181
0.768875
0.786685
0.727207
0.879915
0.613422
0.889709
0.450364
0.777664
0.294598
0.604788
0.183768
0.484509
0.108645
0.460472
0.0459753
0.471474
-0.0116061
0.444139
-0.0594256
0.343458
-0.0912319
0.152978
-0.0917498
-0.169845
-0.0505784
-0.54799
0.0193759
-0.843267
0.0954957
-0.927698
0.163079
-0.842675
0.223386
-0.717424
0.28699
-0.66273
0.36194
-0.696372
0.441595
-0.657621
0.509452
-0.446436
-0.493028
-0.313815
-0.454109
-0.347032
-0.402096
-0.462883
-0.348299
-0.499737
-0.290608
-0.548439
-0.228601
-0.601909
-0.166751
-0.619689
-0.10988
-0.593578
-0.05861
-0.55829
-0.0123063
-0.522988
0.0277959
-0.475257
0.0624798
-0.4315
0.0934794
-0.398242
0.12135
-0.368795
0.147244
-0.345963
0.172033
-0.32952
0.196246
-0.31664
0.220372
-0.30747
0.244837
-0.301392
0.269843
-0.297542
0.295464
-0.295428
0.321819
-0.29463
0.348876
-0.294154
0.376364
-0.289978
0.403566
-0.280107
0.430074
-0.268658
0.455862
-0.257107
0.480862
-0.245843
0.505205
-0.234776
0.528606
-0.224858
0.551246
-0.215837
0.573268
-0.208039
0.594782
-0.20198
0.615945
-0.197963
0.636857
-0.195968
0.657628
-0.192239
0.677824
-0.185491
0.698674
-0.138989
0.714377
-0.0423129
-0.546089
0.583579
-0.32467
0.619537
-0.303871
0.657719
-0.296725
0.688416
-0.222524
0.715647
-0.175524
0.739407
-0.118933
0.758395
-0.0546198
0.773268
0.00565189
0.784567
0.0675873
0.792661
0.125948
0.798208
0.185197
0.801348
0.245308
0.802692
0.306045
0.802489
0.371213
0.800666
0.440632
0.79665
0.514485
0.791199
0.592547
0.792681
0.675722
0.802902
0.776492
0.793741
0.889129
0.722512
0.961006
0.580708
0.919584
0.412397
0.773258
0.273427
0.623715
0.17733
0.556843
0.105019
0.544155
0.0432028
0.506366
-0.00766374
0.394805
-0.0437632
0.189599
-0.0521259
-0.161122
-0.0194028
-0.580377
0.0442112
-0.906947
0.115687
-0.999179
0.179617
-0.906304
0.238226
-0.77536
0.302757
-0.726273
0.380599
-0.773447
0.465414
-0.741895
0.539239
-0.519893
-0.507158
-0.352745
-0.465145
-0.389041
-0.409805
-0.518246
-0.352345
-0.557175
-0.291108
-0.609663
-0.225293
-0.667727
-0.159455
-0.685516
-0.09937
-0.653659
-0.0451644
-0.612473
0.00342372
-0.571544
0.0453217
-0.517102
0.0812321
-0.46737
0.113027
-0.429999
0.141426
-0.397173
0.167483
-0.371998
0.192331
-0.354358
0.216534
-0.34082
0.240614
-0.331537
0.265058
-0.325804
0.290112
-0.322575
0.31595
-0.321222
0.342648
-0.321297
0.370311
-0.321766
0.398568
-0.318209
0.426651
-0.308153
0.454135
-0.296149
0.480965
-0.283938
0.507079
-0.272
0.532539
-0.260224
0.55711
-0.249563
0.580921
-0.239871
0.604107
-0.231549
0.626817
-0.225032
0.649163
-0.220685
0.671272
-0.21849
0.693293
-0.21477
0.714832
-0.2076
0.737524
-0.162382
0.756158
-0.062408
-0.563794
0.604109
-0.364955
0.642527
-0.342312
0.68364
-0.337829
0.716492
-0.255418
0.74587
-0.204841
0.771774
-0.14488
0.792149
-0.0750177
0.808473
-0.0106088
0.821113
0.0549488
0.830174
0.116896
0.836353
0.179022
0.840193
0.24147
0.841782
0.304455
0.841927
0.371067
0.840856
0.441698
0.838223
0.517112
0.832825
0.597934
0.828072
0.680462
0.832679
0.77186
0.838747
0.88303
0.806282
0.993419
0.700392
1.02541
0.539394
0.934159
0.38138
0.781634
0.262667
0.675425
0.177266
0.629378
0.109678
0.573628
0.0556613
0.448278
0.0172751
0.227178
0.00158518
-0.146343
0.0230118
-0.60228
0.0764875
-0.960808
0.140631
-1.06343
0.199157
-0.965088
0.254902
-0.831737
0.319627
-0.791631
0.399926
-0.854689
0.489531
-0.831353
0.569332
-0.597674
-0.522168
-0.39436
-0.477706
-0.433511
-0.418414
-0.577511
-0.357268
-0.61833
-0.292079
-0.674845
-0.222002
-0.737778
-0.152265
-0.755253
-0.0884733
-0.717442
-0.0313834
-0.66955
0.0198478
-0.622731
0.0636066
-0.560825
0.101004
-0.504716
0.133857
-0.462832
0.162866
-0.426151
0.189357
-0.398483
0.21433
-0.379305
0.238551
-0.365035
0.262649
-0.355607
0.287059
-0.350201
0.31216
-0.347642
0.338132
-0.34717
0.365179
-0.348301
0.393364
-0.349917
0.422383
-0.347181
0.451336
-0.337076
0.479781
-0.324565
0.50764
-0.311783
0.53484
-0.299176
0.561429
-0.286747
0.587178
-0.275319
0.612203
-0.264964
0.636631
-0.256041
0.660547
-0.248898
0.684153
-0.244178
0.707527
-0.241664
0.730871
-0.237857
0.753855
-0.230153
0.778352
-0.186422
0.800121
-0.0827999
-0.583041
0.62614
-0.408058
0.667186
-0.383335
0.711225
-0.381888
0.746431
-0.290602
0.77817
-0.236663
0.806069
-0.172739
0.828149
-0.0970614
0.845875
-0.0283764
0.859607
0.0412429
0.869525
0.106985
0.876458
0.1721
0.880917
0.23701
0.883361
0.302017
0.883717
0.370707
0.88273
0.442692
0.880748
0.519093
0.876798
0.601896
0.870007
0.687264
0.867382
0.774516
0.874545
0.875903
0.86846
0.99957
0.803642
1.0903
0.667695
1.07024
0.505282
0.944213
0.367033
0.81391
0.265772
0.730927
0.19033
0.649424
0.132635
0.506401
0.0921412
0.268163
0.0704216
-0.124101
0.078729
-0.610209
0.118099
-1.0002
0.171484
-1.117
0.222354
-1.0159
0.273823
-0.882766
0.337879
-0.854817
0.419947
-0.935984
0.514007
-0.924905
0.599675
-0.683184
-0.538444
-0.438959
-0.490938
-0.481003
-0.42784
-0.640628
-0.362709
-0.683434
-0.293382
-0.744159
-0.21889
-0.812274
-0.144828
-0.829307
-0.0772699
-0.78498
-0.0168524
-0.729944
0.0371309
-0.676667
0.0830844
-0.606733
0.122065
-0.543655
0.155984
-0.496723
0.185888
-0.456033
0.212756
-0.425338
0.238095
-0.404627
0.26236
-0.389288
0.286487
-0.37971
0.310887
-0.374581
0.336035
-0.372753
0.362177
-0.373283
0.389504
-0.375575
0.418201
-0.378576
0.447897
-0.376817
0.477716
-0.366863
0.507093
-0.353896
0.535971
-0.340651
0.564268
-0.327447
0.591993
-0.314479
0.618965
-0.30236
0.645227
-0.291435
0.670884
-0.28199
0.696104
-0.27452
0.720991
-0.269496
0.745689
-0.266867
0.770439
-0.263151
0.794958
-0.255295
0.821431
-0.213809
0.846418
-0.109395
-0.603452
0.649346
-0.453948
0.693308
-0.427335
0.740606
-0.429183
0.778291
-0.328337
0.812447
-0.270758
0.842294
-0.202633
0.86621
-0.121002
0.885469
-0.0475678
0.90025
0.0264599
0.911172
0.0960698
0.919107
0.164161
0.924065
0.232056
0.926905
0.299172
0.927773
0.369841
0.926873
0.443584
0.925015
0.520949
0.922069
0.604831
0.916233
0.693091
0.908883
0.781847
0.910344
0.874421
0.916541
0.99334
0.888549
1.11826
0.790119
1.16862
0.6403
1.09398
0.491346
0.96279
0.373927
0.848231
0.288174
0.734942
0.225548
0.568618
0.182381
0.31066
0.154918
-0.0975017
0.149362
-0.605294
0.17095
-1.02233
0.209454
-1.15582
0.249862
-1.0565
0.295388
-0.929024
0.357701
-0.917577
0.440865
-1.02025
0.53892
-1.02296
0.630283
-0.773104
-0.555891
-0.486509
-0.505366
-0.531534
-0.438131
-0.70783
-0.368712
-0.752862
-0.295073
-0.817787
-0.21598
-0.891341
-0.137175
-0.908103
-0.0656832
-0.856463
-0.00167277
-0.793919
0.0552175
-0.733525
0.103493
-0.654957
0.144204
-0.584342
0.179594
-0.532078
0.210324
-0.486756
0.237897
-0.452885
0.263537
-0.430264
0.288072
-0.413795
0.312229
-0.403857
0.336686
-0.399003
0.361857
-0.397903
0.388105
-0.399485
0.415719
-0.403153
0.444899
-0.407699
0.475324
-0.407193
0.505917
-0.397391
0.536219
-0.384146
0.5661
-0.370463
0.595496
-0.356776
0.624349
-0.343236
0.652539
-0.330506
0.680062
-0.318959
0.707034
-0.308992
0.733552
-0.301044
0.759772
-0.29559
0.785868
-0.292821
0.812082
-0.289002
0.838271
-0.281032
0.866754
-0.241794
0.894972
-0.136109
-0.625408
0.674392
-0.502949
0.72145
-0.474371
0.771714
-0.479478
0.812404
-0.369009
0.84861
-0.307048
0.880922
-0.234902
0.906521
-0.146566
0.927282
-0.0683703
0.943425
0.0103291
0.955433
0.0840665
0.963793
0.155799
0.969543
0.226309
0.972659
0.296052
0.973895
0.368606
0.97349
0.443985
0.971414
0.523028
0.968874
0.607372
0.964568
0.697412
0.956597
0.789834
0.951519
0.879537
0.958663
0.98624
0.957289
1.11971
0.901272
1.22472
0.780389
1.21499
0.634049
1.1093
0.504502
0.978012
0.406825
0.832904
0.337075
0.638739
0.289646
0.358565
0.255964
-0.0632178
0.236197
-0.584991
0.236739
-1.02281
0.255687
-1.17493
0.282269
-1.08329
0.31995
-0.966511
0.379371
-0.976454
0.462803
-1.10298
0.564288
-1.12399
0.661274
-0.869972
-0.574743
-0.537178
-0.520882
-0.58538
-0.449198
-0.779533
-0.375437
-0.826593
-0.29705
-0.896161
-0.213035
-0.975368
-0.129542
-0.991572
-0.0535016
-0.932482
0.0141581
-0.861534
0.0742985
-0.793623
0.125109
-0.705723
0.167829
-0.627031
0.204654
-0.568879
0.236509
-0.518594
0.26477
-0.481132
0.29089
-0.45637
0.315719
-0.438606
0.339998
-0.428118
0.364492
-0.423466
0.389753
-0.423137
0.416147
-0.425832
0.443994
-0.430962
0.473629
-0.43727
0.504694
-0.438212
0.536108
-0.428738
0.567299
-0.415297
0.59816
-0.401265
0.62861
-0.387204
0.658623
-0.373216
0.688022
-0.359969
0.716844
-0.347909
0.745114
-0.337547
0.773012
-0.329311
0.800652
-0.323738
0.828153
-0.320871
0.855968
-0.317454
0.883873
-0.309592
0.914575
-0.273569
0.946063
-0.169315
-0.648703
0.700956
-0.555201
0.750936
-0.524395
0.805013
-0.533556
0.84802
-0.412063
0.887158
-0.346124
0.9216
-0.269399
0.949341
-0.174328
0.971485
-0.0904626
0.988919
-0.00711242
1.00184
0.0711309
1.01127
0.14637
1.01739
0.220179
1.0212
0.292244
1.0227
0.367093
1.02251
0.444178
1.0206
0.524929
1.01779
0.610177
1.01432
0.700865
1.00771
0.796443
0.999162
0.888065
1.00125
0.984142
1.01312
1.10781
0.996655
1.24117
0.91766
1.29396
0.79084
1.23609
0.658487
1.11029
0.54991
0.941327
0.470739
0.717599
0.416428
0.412356
0.374752
-0.0222793
0.339974
-0.550969
0.316657
-1.0002
0.31117
-1.1699
0.320158
-1.09261
0.347882
-0.994788
0.403117
-1.03221
0.485919
-1.18673
0.590298
-1.22847
0.692935
-0.971578
-0.594767
-0.591104
-0.537439
-0.642713
-0.461099
-0.855837
-0.382813
-0.904892
-0.299481
-0.979488
-0.210208
-1.0646
-0.121483
-1.08029
-0.0409462
-1.01299
0.030723
-0.933175
0.0942608
-0.857111
0.147839
-0.75928
0.192716
-0.671872
0.231161
-0.607318
0.264273
-0.551679
0.29343
-0.510287
0.320143
-0.483056
0.345313
-0.46377
0.369844
-0.452614
0.394447
-0.448053
0.419805
-0.44845
0.44633
-0.452326
0.474488
-0.459063
0.504561
-0.467295
0.536207
-0.469788
0.568416
-0.460884
0.600464
-0.447262
0.632308
-0.433028
0.663818
-0.418609
0.694934
-0.404227
0.725595
-0.390529
0.755695
-0.377954
0.78533
-0.367143
0.814588
-0.358551
0.84367
-0.352732
0.872718
-0.349743
0.902131
-0.34651
0.931916
-0.338834
0.964807
-0.305878
0.999644
-0.202584
-0.673567
0.729099
-0.610745
0.782373
-0.577647
0.83996
-0.59117
0.886185
-0.458272
0.927709
-0.387741
0.964831
-0.306474
0.994257
-0.203729
1.01818
-0.114437
1.03693
-0.0258613
1.05105
0.0570143
1.06113
0.136287
1.06809
0.213217
1.07222
0.288107
1.07405
0.365262
1.07394
0.444286
1.07226
0.526606
1.06911
0.613335
1.06574
0.704243
1.06109
0.801115
1.0524
0.896776
1.04835
0.988241
1.06185
1.09436
1.07413
1.22897
1.04235
1.32583
0.952439
1.32613
0.832341
1.23055
0.718824
1.05509
0.629669
0.807084
0.565404
0.477077
0.512464
0.0313977