/*--------------------------------*- C++ -*----------------------------------*\
| =========                 |                                                 |
| \\      /  F ield         | OpenFOAM: The Open Source CFD Toolbox           |
|  \\    /   O peration     | Version:  v1806                                 |
|   \\  /    A nd           | Web:      www.OpenFOAM.com                      |
|    \\/     M anipulation  |                                                 |
\*---------------------------------------------------------------------------*/
FoamFile
{
    version     2.0;
    format      ascii;
    class       volVectorField;
    location    "100";
    object      U;
}
// * * * * * * * * * * * * * * * * * * * * * * * * * * * * * * * * * * * * * //

dimensions      [0 1 -1 0 0 0 0];


internalField   nonuniform List<vector> 
10720
(
(-7.42978 55.5144 8.87605e-17)
(-4.30583 56.4118 -8.84585e-17)
(-1.05696 56.3949 0)
(2.12137 54.7148 -1.00616e-15)
(5.01146 51.537 1.19829e-15)
(7.3776 46.5397 7.56427e-16)
(8.83936 39.5504 9.42361e-16)
(9.11694 30.8446 0)
(8.03418 20.9711 0)
(5.65272 11.0536 0)
(2.38331 2.63485 4.08019e-17)
(-2.03255 -2.34073 0)
(-4.46829 -3.16734 1.97025e-14)
(-5.3841 -3.29307 0)
(-5.558 -3.13868 0)
(-5.53475 -2.87771 0)
(-5.30408 -2.46626 -2.73931e-14)
(-5.04675 -1.98881 -4.10013e-14)
(-5.1548 -1.57732 3.98552e-14)
(-5.96299 -1.29948 0)
(-7.46924 -1.16328 2.64175e-14)
(-9.10753 -1.03409 -4.39715e-14)
(-10.7301 -0.839061 1.89963e-14)
(-12.6526 -0.607411 -4.81656e-16)
(-15.212 -0.324052 0)
(-18.4663 0.0802207 5.88074e-15)
(-22.1214 0.627197 8.47523e-17)
(-25.444 1.25 -2.68032e-15)
(-27.3967 1.82301 -1.04248e-14)
(-26.9301 2.1786 -3.8564e-14)
(-23.9968 2.18042 1.71969e-14)
(-18.8693 1.77762 2.95506e-14)
(-13.0447 1.22352 2.65766e-14)
(-7.35531 0.583207 1.09415e-13)
(-2.61416 -0.0293238 -5.15449e-14)
(1.87551 -0.678329 -3.14629e-16)
(5.44916 -1.26337 1.21791e-16)
(10.9422 -2.44434 3.56537e-14)
(8.55961 -2.66211 -1.46515e-14)
(-10.4532 54.0618 3.92593e-17)
(-13.5022 51.81 7.20154e-17)
(-16.4281 48.7708 -1.21191e-16)
(-18.9644 44.4218 1.41248e-16)
(-20.7995 39.4263 3.31693e-16)
(-21.6856 33.8116 -9.64538e-17)
(-21.4505 27.8801 4.05957e-16)
(-20.0864 22.0915 4.92338e-16)
(-17.8171 16.8698 0)
(-14.9403 12.3988 0)
(-11.6946 8.72577 2.60658e-15)
(-8.31675 5.83972 1.97797e-15)
(-5.00104 3.66805 -5.95577e-15)
(-1.96657 2.13011 1.06471e-14)
(0.735063 0.974465 2.87653e-14)
(3.37795 -0.0790459 1.43811e-14)
(5.9126 -0.922355 1.44494e-14)
(8.29334 -1.55758 8.47319e-15)
(10.5467 -2.02988 0)
(12.7029 -2.37276 0)
(14.7891 -2.607 -1.07995e-14)
(16.8289 -2.73866 -5.60442e-16)
(18.8361 -2.75821 8.36088e-15)
(20.7877 -2.63786 -6.75027e-15)
(22.6255 -2.37019 1.93507e-17)
(24.3273 -1.98998 0)
(25.9115 -1.52375 2.19676e-15)
(27.3876 -0.988707 0)
(28.7707 -0.400832 0)
(30.0496 0.230053 1.42249e-15)
(31.2239 0.884677 0)
(32.3238 1.55416 -4.17516e-15)
(33.36 2.22941 -6.86088e-15)
(34.3503 2.90565 -2.82087e-14)
(35.2936 3.57857 9.02689e-15)
(36.2557 4.26245 -3.02291e-17)
(37.0006 4.95238 0)
(38.0672 5.63979 7.1627e-15)
(36.4735 6.61584 5.4494e-15)
(7.08586 51.6271 3.20721e-17)
(10.492 52.669 -4.84699e-17)
(14.0179 53.6477 0)
(17.3792 54.3529 0)
(20.2526 54.6909 -2.87414e-16)
(22.4747 54.6526 -5.43e-16)
(23.8846 53.852 0)
(24.3545 51.7069 0)
(23.697 47.3878 9.07676e-16)
(21.667 40.2878 0)
(18.1503 30.6201 3.87149e-15)
(12.9021 19.5621 0)
(7.00449 9.48849 2.7933e-15)
(1.55894 2.33354 -5.18752e-15)
(-1.78167 -0.654345 1.39626e-14)
(-3.14477 -1.67507 -2.46204e-14)
(-4.1444 -2.04965 2.28443e-14)
(-5.17645 -2.04433 2.15951e-14)
(-6.41145 -1.83812 2.035e-14)
(-8.04917 -1.57125 1.06913e-15)
(-9.84448 -1.32303 -1.50005e-14)
(-11.5682 -1.07198 1.3022e-14)
(-13.2576 -0.76888 -6.71404e-16)
(-15.074 -0.496444 0)
(-17.1802 -0.271174 0)
(-19.6254 0.0112358 0)
(-22.1765 0.411097 4.95296e-16)
(-24.2799 0.871165 -1.24254e-16)
(-25.2037 1.28264 7.95087e-15)
(-24.3713 1.53414 4.44566e-18)
(-21.09 1.43359 1.36153e-17)
(-15.7097 0.91044 -8.32626e-17)
(-9.53145 0.332003 1.44211e-14)
(-3.3017 -0.324554 -2.40283e-14)
(1.81464 -0.92581 -1.25341e-16)
(6.31388 -1.6099 -2.40906e-14)
(9.86766 -2.26567 0)
(14.9125 -3.41097 -7.83829e-15)
(14.4505 -3.3894 -7.69958e-15)
(3.81417 50.1927 -4.35132e-17)
(0.606901 48.388 6.183e-17)
(-2.83657 45.9771 3.50572e-16)
(-6.13067 42.8033 -4.37645e-16)
(-9.01289 38.8783 0)
(-11.2564 34.2876 -2.47524e-16)
(-12.627 29.2297 -3.09402e-16)
(-12.9632 24.0677 -2.17626e-15)
(-12.305 19.1573 9.37976e-16)
(-10.8345 14.7193 -1.60648e-15)
(-8.76292 10.8943 3.04237e-15)
(-6.30027 7.74038 -1.37356e-15)
(-3.63947 5.26149 0)
(-0.977153 3.42935 -2.94786e-15)
(1.57169 2.02282 -7.68816e-17)
(4.05317 0.859602 -7.88198e-15)
(6.44131 -0.0416269 0)
(8.73306 -0.723207 0)
(10.9408 -1.23071 -7.1858e-16)
(13.0794 -1.59558 6.34989e-16)
(15.165 -1.83595 -8.09282e-15)
(17.2149 -1.95663 -9.33605e-16)
(19.2386 -1.94404 4.15861e-16)
(21.216 -1.77073 5.64185e-15)
(23.0987 -1.44483 -5.05025e-15)
(24.8608 -1.02484 -4.16454e-15)
(26.5129 -0.538011 0)
(28.0618 0.00253701 0)
(29.5201 0.583451 0)
(30.8782 1.19798 9.50047e-18)
(32.133 1.823 0)
(33.3132 2.45614 0)
(34.4285 3.09059 1.17759e-14)
(35.4962 3.72398 9.56564e-15)
(36.5132 4.35635 -7.5786e-15)
(37.5454 5.00819 5.83167e-15)
(38.3568 5.67675 -8.31425e-15)
(39.5292 6.40794 -6.20975e-15)
(38.3292 6.941 -4.14082e-15)
(3.08427 47.6884 1.07293e-17)
(5.43284 48.6941 2.37362e-16)
(8.01626 49.3914 -1.90817e-16)
(10.7522 49.7541 -1.92246e-16)
(13.5642 49.8498 -4.53377e-16)
(16.5088 49.9078 1.31799e-15)
(19.4293 50.151 -8.366e-16)
(22.143 50.6162 -7.61189e-16)
(24.489 50.8831 -1.90803e-17)
(26.0749 49.8386 -7.55324e-16)
(26.276 46.101 6.9396e-16)
(24.306 38.7862 -1.79595e-15)
(19.8337 28.4899 -1.07213e-15)
(13.3857 17.3108 0)
(6.65489 8.06535 -4.67802e-15)
(1.64329 2.48513 1.51721e-14)
(-1.19238 0.104502 0)
(-3.42568 -0.856705 -3.30266e-14)
(-5.40369 -1.04049 -1.46398e-14)
(-7.16103 -0.901206 1.54716e-15)
(-8.73171 -0.722429 -1.28887e-15)
(-10.1544 -0.482691 -5.73716e-16)
(-11.5466 -0.117909 -7.69753e-15)
(-13.0056 0.20087 3.73555e-15)
(-14.7039 0.380113 0)
(-16.8287 0.53605 3.27974e-15)
(-19.2901 0.767967 -4.00446e-16)
(-21.552 1.02389 0)
(-22.7356 1.18235 6.32036e-15)
(-21.9314 1.1213 1.07771e-14)
(-18.6104 0.727523 -1.69355e-14)
(-13.1836 -0.00835879 -1.23457e-14)
(-6.9382 -0.609931 -1.41056e-16)
(-0.610398 -1.18658 -1.48557e-14)
(4.60578 -1.70348 -1.08539e-14)
(9.10772 -2.34842 1.48879e-14)
(12.8147 -3.0411 0)
(17.7788 -4.15522 -5.11978e-15)
(18.1808 -4.40148 1.08872e-14)
(0.971785 46.3619 2.71412e-17)
(-1.08115 44.6668 3.04587e-17)
(-3.13358 42.3942 -2.12975e-16)
(-5.16698 39.5693 0)
(-6.93394 36.2524 4.5486e-17)
(-8.31669 32.4458 0)
(-9.17501 28.2753 8.88876e-16)
(-9.38898 23.9786 6.0616e-16)
(-8.92696 19.7883 8.9106e-16)
(-7.84553 15.8687 0)
(-6.26201 12.3474 -3.53749e-15)
(-4.30289 9.31008 -1.19064e-15)
(-2.1095 6.7948 7.66669e-15)
(0.174067 4.81033 0)
(2.46762 3.23899 -6.67112e-15)
(4.75703 1.96096 -1.84194e-15)
(6.99412 0.944901 7.80959e-15)
(9.17128 0.143835 4.04576e-15)
(11.2914 -0.476867 1.16734e-15)
(13.362 -0.944966 -5.4499e-16)
(15.3932 -1.2768 6.84416e-15)
(17.397 -1.48039 0)
(19.3793 -1.54572 0)
(21.3226 -1.45901 1.10833e-17)
(23.1866 -1.2295 0)
(24.9467 -0.89941 7.92213e-15)
(26.6093 -0.486895 -1.12057e-16)
(28.1807 -0.0035223 -7.60229e-16)
(29.6735 0.536648 0)
(31.0784 1.12804 -1.1516e-15)
(32.3924 1.74227 2.00726e-15)
(33.6423 2.3786 0)
(34.8375 3.02807 -5.76249e-15)
(35.9935 3.687 0)
(37.1052 4.35185 0)
(38.233 5.039 6.04103e-17)
(39.1541 5.75251 -8.23493e-17)
(40.3883 6.4432 6.4584e-15)
(39.5608 7.04416 8.8487e-15)
(7.24812 44.6089 2.25125e-17)
(9.48916 45.6035 5.44698e-17)
(11.9086 46.3988 -1.29992e-16)
(14.3881 46.911 -1.11191e-16)
(16.7295 47.1181 0)
(18.8656 47.0515 0)
(20.7799 46.8278 -1.41908e-15)
(22.5417 46.6908 1.46904e-15)
(24.3009 46.9785 0)
(26.169 47.719 -1.30474e-15)
(27.9584 48.1385 -1.3808e-15)
(28.9325 46.5971 -1.29883e-15)
(27.9048 41.4474 1.49208e-15)
(23.964 32.4389 1.68305e-15)
(17.33 21.3447 0)
(9.89217 11.2828 4.78895e-15)
(3.86517 4.61222 2.39558e-15)
(-0.365025 1.41305 2.42492e-14)
(-3.44442 0.340922 1.45149e-15)
(-5.49438 0.102187 -1.20961e-15)
(-6.91009 0.0331935 9.3594e-15)
(-8.09892 0.117087 -1.37661e-15)
(-9.31958 0.466592 7.07376e-15)
(-10.6774 0.833069 3.0466e-15)
(-12.3314 1.00826 -1.80546e-16)
(-14.4992 1.08779 -2.53352e-15)
(-17.0998 1.19208 2.10906e-17)
(-19.5256 1.26352 -1.98819e-17)
(-20.8124 1.16197 -5.22158e-15)
(-20.0117 0.778283 -1.25189e-16)
(-16.6908 0.0743049 6.87177e-15)
(-11.2732 -0.885856 -1.00594e-14)
(-4.99995 -1.5239 -7.17457e-15)
(1.34085 -2.01831 -1.49854e-16)
(6.58192 -2.43139 7.95243e-15)
(11.07 -3.01158 0)
(14.8711 -3.71097 7.35315e-15)
(19.808 -4.78885 3.85933e-15)
(20.7481 -5.08583 -4.38548e-15)
(5.14837 43.409 1.74281e-18)
(3.0787 41.9425 -6.98406e-17)
(0.971708 40.0304 -8.98559e-17)
(-1.09918 37.6167 0)
(-2.91862 34.7558 -4.32761e-17)
(-4.39477 31.4545 0)
(-5.411 27.8113 -9.52937e-16)
(-5.86892 24.0281 -2.06524e-17)
(-5.74024 20.2926 8.52465e-16)
(-5.05889 16.7332 1.27564e-15)
(-3.90536 13.4624 2.86722e-17)
(-2.37072 10.5712 3.89193e-15)
(-0.569616 8.10731 -3.97575e-15)
(1.38551 6.0807 1.58828e-15)
(3.42029 4.4128 6.49749e-15)
(5.49599 3.03379 7.12399e-15)
(7.56634 1.91167 -6.34899e-15)
(9.61564 1.01113 -2.56263e-17)
(11.6381 0.300611 0)
(13.6337 -0.245229 7.09946e-15)
(15.6057 -0.643268 3.87451e-16)
(17.5601 -0.902643 -5.96716e-15)
(19.4988 -1.01875 0)
(21.4052 -0.98345 7.35134e-18)
(23.2436 -0.803676 0)
(24.9888 -0.513813 -3.48768e-15)
(26.6428 -0.134733 0)
(28.2105 0.318562 6.93726e-16)
(29.7033 0.831146 -2.7887e-17)
(31.1128 1.3979 1.73235e-17)
(32.4361 1.98823 -1.76889e-15)
(33.6985 2.60259 -5.2312e-17)
(34.9111 3.232 0)
(36.0895 3.87311 4.38021e-15)
(37.23 4.52179 6.15138e-17)
(38.3917 5.19406 -5.4934e-15)
(39.3636 5.89513 1.62123e-14)
(40.6377 6.53131 2.87052e-17)
(40.1139 7.17791 0)
(7.77711 42.3448 2.40136e-17)
(9.53828 43.3492 4.97823e-17)
(11.481 44.2346 -2.21839e-16)
(13.4953 44.9073 1.06736e-15)
(15.5078 45.3312 -2.82759e-16)
(17.59 45.5015 -5.77073e-16)
(19.6475 45.4168 6.74944e-16)
(21.5953 45.1209 0)
(23.4279 44.7705 1.87724e-15)
(25.2172 44.6972 7.01849e-16)
(27.1077 45.2243 0)
(29.0891 46.0289 1.23449e-15)
(30.5178 45.5381 -6.04093e-16)
(30.0226 41.6494 1.77332e-15)
(26.2699 33.492 0)
(19.4068 22.6654 -3.73388e-15)
(11.4173 12.4823 5.08546e-15)
(4.51172 5.63663 -2.89774e-17)
(-0.463906 2.47749 0)
(-3.41118 1.38844 9.51058e-15)
(-4.96779 0.890146 -8.13854e-15)
(-6.04014 0.727802 -4.00401e-16)
(-7.17359 1.00825 -5.72167e-15)
(-8.55728 1.42416 -4.90957e-15)
(-10.2945 1.62536 0)
(-12.5647 1.65276 0)
(-15.2833 1.6386 -5.66636e-16)
(-17.8234 1.52748 -7.15936e-17)
(-19.1947 1.16139 4.63399e-15)
(-18.4321 0.446758 -1.06842e-16)
(-15.1475 -0.573787 9.23999e-17)
(-9.78407 -1.75131 8.04015e-15)
(-3.52717 -2.41785 0)
(2.772 -2.81104 1.78268e-14)
(7.98408 -3.10096 -5.73947e-17)
(12.4406 -3.6047 0)
(16.2981 -4.29964 3.09949e-17)
(21.2461 -5.33141 0)
(22.6087 -5.59192 3.88608e-15)
(6.14624 41.1723 -2.17423e-17)
(4.54405 39.7899 4.30043e-17)
(2.89456 38.0222 -1.58874e-17)
(1.22255 35.8414 1.47465e-16)
(-0.278606 33.3139 -3.65847e-16)
(-1.54412 30.414 -7.52327e-16)
(-2.47412 27.2119 8.90562e-16)
(-2.97203 23.8735 -1.31082e-15)
(-2.99702 20.5488 -9.30136e-16)
(-2.56041 17.3332 -1.1748e-15)
(-1.71022 14.3226 2.8149e-15)
(-0.508303 11.6044 -3.5951e-15)
(0.962779 9.23351 -2.27665e-15)
(2.62338 7.21493 2.60022e-15)
(4.40978 5.50274 -6.49507e-15)
(6.27414 4.06011 1.11916e-15)
(8.17412 2.86206 0)
(10.0878 1.88063 -4.80665e-15)
(12.0031 1.09049 1.73222e-15)
(13.9137 0.469683 -7.04561e-15)
(15.8177 0.00311576 0)
(17.7153 -0.318569 5.00882e-15)
(19.6052 -0.493227 4.1877e-15)
(21.4706 -0.518204 -3.72557e-15)
(23.2794 -0.399184 0)
(25.0061 -0.165553 -3.18546e-15)
(26.6489 0.162534 0)
(28.2107 0.569608 0)
(29.7011 1.04314 0)
(31.1121 1.57701 9.70018e-16)
(32.44 2.14104 0)
(33.7081 2.73444 0)
(34.9277 3.34822 -4.93482e-15)
(36.114 3.97798 -4.07313e-15)
(37.2632 4.61918 0)
(38.4333 5.2844 -5.20144e-15)
(39.4229 5.97951 9.94389e-17)
(40.7073 6.5833 0)
(40.379 7.21287 -3.94169e-15)
(9.51269 40.3384 -3.69991e-17)
(11.1296 41.3023 2.87616e-17)
(12.9169 42.1817 0)
(14.7821 42.8811 -9.42675e-18)
(16.6501 43.3809 -6.82655e-16)
(18.4956 43.7072 5.69737e-16)
(20.2536 43.8593 5.13659e-17)
(21.9071 43.8362 -1.59958e-15)
(23.4731 43.6306 -1.05169e-16)
(24.9757 43.285 1.691e-15)
(26.4883 43.0388 -5.54587e-16)
(28.1776 43.3419 1.08425e-15)
(30.1192 44.1838 5.0159e-16)
(31.7081 44.1324 4.07133e-16)
(31.3189 40.7774 0)
(27.3746 32.9518 -6.47139e-16)
(20.0404 22.3188 -1.64371e-15)
(11.4577 12.4403 -8.7241e-15)
(4.08085 6.0796 3.67847e-15)
(-0.59529 3.20314 -5.24719e-15)
(-2.82379 1.94311 -8.31425e-16)
(-3.99272 1.4042 0)
(-5.10777 1.56612 4.79872e-15)
(-6.56596 2.02945 2.86438e-16)
(-8.43145 2.27637 -1.36343e-16)
(-10.8157 2.26045 -1.85291e-15)
(-13.6417 2.12444 4.40258e-16)
(-16.298 1.82298 1.01296e-15)
(-17.7783 1.18272 -4.11443e-15)
(-17.0872 0.119191 -1.89208e-16)
(-13.8624 -1.22571 5.09383e-15)
(-8.57853 -2.61595 6.81507e-15)
(-2.39704 -3.3022 0)
(3.81688 -3.57671 1.00519e-16)
(8.95745 -3.72441 -5.45105e-15)
(13.3576 -4.13913 0)
(17.2488 -4.82312 -9.88909e-15)
(22.2303 -5.80445 0)
(23.9866 -6.01855 -3.28975e-15)
(8.01374 39.2416 2.12717e-17)
(6.55007 37.9742 -6.56017e-18)
(5.04475 36.3725 -5.182e-19)
(3.52469 34.398 0)
(2.15848 32.1268 1.78201e-16)
(0.987941 29.5287 1.35214e-15)
(0.0946307 26.6591 0)
(-0.437499 23.6639 -1.28358e-15)
(-0.570464 20.6702 -1.63812e-15)
(-0.308069 17.7489 2.066e-15)
(0.317525 14.9802 -3.38764e-17)
(1.26073 12.4447 1.55565e-15)
(2.46308 10.1922 -6.23096e-17)
(3.86977 8.21824 6.61793e-15)
(5.42716 6.50137 6.33957e-15)
(7.08829 5.02628 -5.93287e-15)
(8.81782 3.77681 9.0409e-16)
(10.5914 2.73273 -1.6694e-15)
(12.3929 1.87657 7.71355e-16)
(14.2113 1.19024 4.84986e-15)
(16.0403 0.661702 6.3824e-16)
(17.8755 0.281569 -5.52636e-16)
(19.7123 0.0510381 -3.53376e-15)
(21.5337 -0.0308229 0)
(23.3097 0.0310466 1.97992e-16)
(25.0147 0.211517 5.66567e-15)
(26.6435 0.492362 -3.93795e-17)
(28.1966 0.857545 3.78863e-17)
(29.6823 1.29533 0)
(31.0928 1.79804 -8.96805e-16)
(32.4233 2.33618 0)
(33.6951 2.90731 0)
(34.9195 3.50267 4.50079e-15)
(36.1112 4.11712 3.89541e-15)
(37.2661 4.74585 0)
(38.4408 5.39795 4.81086e-15)
(39.443 6.08107 -1.43374e-14)
(40.7334 6.64964 5.08338e-17)
(40.562 7.24926 3.66805e-15)
(10.6637 38.71 -1.09955e-17)
(12.0646 39.6546 2.02858e-17)
(13.625 40.5527 -1.47218e-16)
(15.2574 41.3071 1.50027e-16)
(16.8888 41.8929 4.35589e-16)
(18.5645 42.3288 0)
(20.2363 42.5918 -8.98121e-16)
(21.8633 42.6948 5.5856e-17)
(23.4291 42.6537 -5.73569e-16)
(24.912 42.4536 -1.0709e-15)
(26.3145 42.0813 0)
(27.692 41.7178 -2.08237e-15)
(29.2384 41.8756 -1.57368e-15)
(31.1355 42.719 -3.47448e-15)
(32.7269 42.7745 0)
(32.1186 39.4101 -1.9967e-15)
(27.6137 31.4848 -2.30813e-15)
(19.6068 21.0124 2.9565e-15)
(10.5959 11.769 -3.91447e-15)
(3.59543 6.11185 5.08504e-15)
(-0.137251 3.40309 7.32712e-16)
(-1.80721 2.23046 -6.21201e-15)
(-3.03131 2.17566 0)
(-4.59262 2.67247 -4.42874e-15)
(-6.61025 2.98037 2.3705e-16)
(-9.1226 2.9272 1.83049e-15)
(-12.0623 2.661 0)
(-14.8506 2.15692 -5.56165e-17)
(-16.4701 1.22879 1.7667e-16)
(-15.8837 -0.208663 5.77991e-15)
(-12.7415 -1.89016 -4.25094e-15)
(-7.55605 -3.48883 -5.96224e-15)
(-1.50002 -4.18596 4.38987e-15)
(4.57978 -4.32292 4.81071e-17)
(9.60681 -4.31207 4.59626e-15)
(13.9292 -4.62952 6.45466e-15)
(17.8422 -5.30122 4.21887e-15)
(22.8684 -6.23148 -3.8149e-17)
(25.0092 -6.40367 1.51966e-17)
(9.362 37.6582 -6.28974e-18)
(8.09433 36.4675 2.93585e-17)
(6.77757 34.9791 9.87892e-17)
(5.43366 33.1601 -1.18793e-16)
(4.21486 31.0921 -7.95403e-16)
(3.15194 28.7346 3.41398e-16)
(2.3149 26.1332 9.36987e-16)
(1.78093 23.4194 3.05173e-15)
(1.58546 20.7025 1.61751e-15)
(1.72932 18.0359 -1.8952e-15)
(2.18954 15.4878 -1.13378e-16)
(2.93274 13.1336 -1.53941e-15)
(3.92005 11.0065 0)
(5.11081 9.09993 -6.83871e-17)
(6.45957 7.40919 -3.60026e-15)
(7.93098 5.92905 1.68281e-15)
(9.49506 4.65054 -1.58313e-15)
(11.1279 3.56287 0)
(12.8115 2.65405 2.69996e-15)
(14.5323 1.91177 -4.99307e-15)
(16.2802 1.32645 0)
(18.0477 0.891614 4.09545e-15)
(19.827 0.605811 0)
(21.6011 0.468412 -2.02923e-16)
(23.341 0.472765 1.94349e-16)
(25.0209 0.600254 -2.62727e-15)
(26.6325 0.831883 -4.22844e-17)
(28.1747 1.15388 -3.53032e-17)
(29.6537 1.55237 1.43524e-17)
(31.0623 2.02128 -8.5884e-16)
(32.3942 2.53075 -1.47511e-15)
(33.6689 3.07792 2.47143e-15)
(34.8973 3.65354 7.22347e-17)
(36.0936 4.25215 2.90631e-17)
(37.2533 4.86824 0)
(38.4314 5.50749 6.33998e-17)
(39.4458 6.17851 6.60802e-15)
(40.7403 6.71786 1.39954e-17)
(40.7147 7.28332 3.44401e-15)
(11.871 37.2903 -3.28677e-18)
(13.1402 38.2058 -3.05286e-17)
(14.5628 39.0915 0)
(16.057 39.8538 -4.79863e-17)
(17.5585 40.4651 2.97424e-16)
(19.1077 40.9567 0)
(20.6422 41.306 -3.47876e-16)
(22.1364 41.5157 2.24789e-15)
(23.593 41.5977 -2.65667e-15)
(24.9998 41.5577 8.17788e-16)
(26.3494 41.3699 9.04286e-16)
(27.6299 40.9868 2.82514e-15)
(28.869 40.5691 1.85468e-15)
(30.3126 40.7072 1.91698e-15)
(32.2006 41.5843 4.60956e-16)
(33.6789 41.4966 1.38448e-15)
(32.5602 37.687 1.91547e-15)
(27.2359 29.3988 2.16468e-15)
(18.5652 19.183 -2.05236e-15)
(9.72531 10.7519 -8.15856e-15)
(3.73749 5.71792 0)
(0.805871 3.38653 -3.1577e-18)
(-0.823379 2.89675 4.38442e-15)
(-2.54564 3.37136 4.08653e-15)
(-4.73239 3.74759 -2.15671e-16)
(-7.38768 3.66312 -1.66964e-15)
(-10.4489 3.25658 1.33135e-17)
(-13.3856 2.53682 -9.77513e-16)
(-15.1763 1.3055 1.12169e-16)
(-14.7347 -0.536491 -1.07604e-14)
(-11.7058 -2.57324 -1.99621e-17)
(-6.64145 -4.37574 -9.58441e-17)
(-0.751562 -5.07226 -3.92692e-15)
(5.14192 -5.05233 4.71278e-17)
(10.0193 -4.87251 -4.05113e-15)
(14.2491 -5.09131 -1.12266e-14)
(18.1776 -5.75364 3.68418e-15)
(23.2515 -6.6353 1.94703e-15)
(25.7613 -6.76706 -2.76307e-15)
(10.6936 36.2882 -1.65567e-18)
(9.55024 35.171 -5.07706e-17)
(8.36134 33.7833 -8.06371e-17)
(7.14434 32.0957 -2.14362e-16)
(6.03753 30.1918 4.64925e-16)
(5.06123 28.0292 2.43166e-17)
(4.27572 25.6462 -2.71908e-15)
(3.751 23.1634 -1.28503e-15)
(3.51841 20.678 -7.5046e-17)
(3.58053 18.2308 0)
(3.91866 15.8822 -2.21036e-15)
(4.50735 13.7004 2.68368e-15)
(5.32192 11.6994 -3.06776e-15)
(6.33034 9.87398 -1.59543e-15)
(7.49524 8.23029 1.50922e-15)
(8.79342 6.76619 1.43671e-15)
(10.2005 5.47914 5.51534e-15)
(11.695 4.36513 -1.30812e-15)
(13.2591 3.41761 -2.43794e-15)
(14.8785 2.62948 0)
(16.5407 1.99446 -4.09412e-15)
(18.2358 1.50876 -3.29547e-15)
(19.9538 1.17057 -1.96262e-17)
(21.6772 0.979316 -3.94698e-16)
(23.3778 0.927999 -1.69179e-16)
(25.0293 1.00341 2.68333e-15)
(26.6211 1.18626 -6.83244e-17)
(28.15 1.46466 5.73505e-16)
(29.6203 1.82335 1.26278e-16)
(31.0251 2.2577 7.7762e-16)
(32.3572 2.73802 -7.91509e-18)
(33.6336 3.26041 -4.8621e-15)
(34.8651 3.81551 -3.96471e-15)
(36.0652 4.39724 -3.39575e-15)
(37.2291 4.99975 -8.67007e-17)
(38.41 5.62505 3.79592e-17)
(39.4368 6.28287 -6.47439e-15)
(40.7346 6.79673 -5.038e-15)
(40.8492 7.3283 -3.23448e-15)
(12.9386 36.067 8.97202e-18)
(14.0856 36.9524 2.0119e-17)
(15.3771 37.8284 1.79226e-16)
(16.736 38.5974 -8.4807e-16)
(18.1034 39.2324 4.93845e-16)
(19.5226 39.769 -6.32436e-16)
(20.9474 40.1763 1.48497e-15)
(22.3549 40.4512 0)
(23.7447 40.6047 8.4156e-16)
(25.0985 40.6448 1.02218e-19)
(26.4109 40.5807 -8.15543e-16)
(27.6766 40.3801 -2.67535e-15)
(28.8608 39.9705 -9.54215e-16)
(29.9953 39.5432 0)
(31.4185 39.7702 0)
(33.3471 40.6718 0)
(34.5832 40.1596 0)
(32.7111 35.567 -1.80112e-15)
(26.4489 26.8435 2.11299e-15)
(17.4673 17.0423 2.6783e-15)
(9.3631 9.45389 -2.99656e-15)
(4.35615 5.22761 2.95433e-15)
(1.71259 3.86716 -3.12565e-15)
(-0.346104 4.15429 -2.18245e-16)
(-2.72103 4.58677 -1.03132e-16)
(-5.52784 4.47566 1.63018e-15)
(-8.71434 3.91741 3.85528e-16)
(-11.8113 2.96402 0)
(-13.806 1.41503 0)
(-13.5566 -0.860786 -4.68553e-17)
(-10.6856 -3.27504 0)
(-5.77591 -5.27869 5.00279e-15)
(-0.0858073 -5.96227 -3.66703e-15)
(5.57154 -5.77057 -4.88823e-15)
(10.2691 -5.41646 7.15122e-15)
(14.3944 -5.53891 5.0185e-15)
(18.3329 -6.19675 -3.23827e-15)
(23.4497 -7.03223 -3.48773e-15)
(26.3083 -7.11957 2.42813e-15)
(11.8764 35.1065 0)
(10.8461 34.0482 1.23126e-17)
(9.77115 32.7447 1.30102e-16)
(8.66559 31.1652 -7.52956e-16)
(7.6569 29.3988 7.38615e-16)
(6.75863 27.3977 -6.45943e-16)
(6.02393 25.1963 -6.97154e-17)
(5.51618 22.9069 9.84834e-16)
(5.26435 20.6177 1.32912e-15)
(5.27045 18.3607 0)
(5.51823 16.1922 1.03969e-15)
(5.98857 14.168 -3.71877e-15)
(6.66414 12.2896 6.80816e-15)
(7.5187 10.5536 1.33646e-15)
(8.52457 8.97045 -2.66737e-15)
(9.6671 7.53877 -2.57812e-15)
(10.9279 6.26042 -2.46715e-15)
(12.2889 5.13536 0)
(13.7345 4.16253 0)
(15.2503 3.33855 0)
(16.8236 2.66185 3.75371e-15)
(18.4424 2.12996 0)
(20.0956 1.74323 -2.72876e-15)
(21.765 1.49987 -3.63996e-16)
(23.4231 1.3957 -2.58281e-15)
(25.0429 1.4191 -2.34521e-15)
(26.612 1.55424 0)
(28.125 1.78805 -4.74365e-16)
(29.5847 2.10675 -1.30987e-16)
(30.984 2.50485 2.45522e-17)
(32.3149 2.95529 2.61887e-15)
(33.5921 3.45122 -1.40765e-17)
(34.8259 3.98469 3.79753e-15)
(36.0291 4.54839 -3.18934e-15)
(37.1968 5.13659 0)
(38.38 5.74708 -5.75059e-17)
(39.4197 6.39099 -2.04718e-17)
(40.7201 6.88318 4.7796e-15)
(40.9706 7.38018 -3.16436e-17)
(13.947 34.9854 7.54408e-19)
(14.9954 35.8435 0)
(16.1831 36.7018 -2.4317e-16)
(17.4361 37.465 3.28441e-16)
(18.6995 38.1072 -2.3848e-16)
(20.017 38.662 5.97346e-16)
(21.3455 39.1086 -6.9183e-16)
(22.6604 39.4356 -6.64268e-16)
(23.9669 39.6505 0)
(25.2508 39.7552 -7.83564e-16)
(26.5071 39.7592 -7.57161e-16)
(27.7375 39.6722 7.15523e-16)
(28.9264 39.4481 2.33346e-15)
(30.0216 39.0043 8.32453e-16)
(31.0953 38.6206 -2.36503e-15)
(32.5952 39.013 -1.54597e-15)
(34.5837 39.8189 1.11136e-15)
(35.4003 38.5463 7.76577e-16)
(32.5399 32.9518 -4.17372e-16)
(25.4256 23.9002 5.23381e-16)
(16.5417 14.6784 1.65283e-15)
(9.29089 8.18526 3.9488e-16)
(4.89737 5.33701 -4.12692e-16)
(2.11135 5.0976 -2.72978e-15)
(-0.521317 5.50368 0)
(-3.47513 5.36822 -1.44002e-15)
(-6.7784 4.64496 -7.21784e-16)
(-10.037 3.43837 -7.69895e-16)
(-12.2654 1.56026 -3.44917e-15)
(-12.2628 -1.1738 1.0304e-14)
(-9.6101 -3.99088 3.2688e-15)
(-4.9005 -6.199 1.40751e-16)
(0.554613 -6.85494 -3.70436e-17)
(5.92781 -6.48053 0)
(10.4177 -5.95019 -3.24947e-15)
(14.4271 -5.98224 0)
(18.3669 -6.64206 0)
(23.5149 -7.43463 1.58671e-15)
(26.6962 -7.47302 -2.20977e-17)
(12.974 34.0655 -1.03794e-17)
(12.0357 33.0619 8.69741e-17)
(11.053 31.831 -1.39496e-17)
(10.0405 30.3454 1.45093e-16)
(9.1157 28.6944 -7.66965e-16)
(8.2859 26.8303 6.78511e-16)
(7.59841 24.7826 1.20168e-16)
(7.11213 22.6574 -9.19594e-16)
(6.85247 20.5358 -1.15481e-15)
(6.82041 18.4454 -1.44918e-15)
(7.00104 16.438 -3.72013e-15)
(7.38171 14.555 0)
(7.94566 12.793 -2.3531e-15)
(8.67048 11.1508 -5.20238e-17)
(9.53982 9.63644 0)
(10.5443 8.24952 -2.22846e-15)
(11.6706 6.99345 -1.0694e-15)
(12.9051 5.87118 -1.04034e-15)
(14.2349 4.88502 3.89304e-15)
(15.6472 4.03573 3.64802e-15)
(17.1293 3.325 -4.19479e-16)
(18.6689 2.75292 3.1373e-15)
(20.2541 2.32138 7.35438e-16)
(21.8666 2.02935 -3.36024e-16)
(23.479 1.8743 2.256e-15)
(25.064 1.84719 1.41046e-16)
(26.6074 1.9349 0)
(28.1022 2.12425 0)
(29.5491 2.40243 -2.38506e-17)
(30.941 2.76377 6.52201e-17)
(32.2694 3.18345 -2.51742e-15)
(33.5462 3.65213 -1.26519e-17)
(34.7814 4.16299 3.73907e-15)
(35.9872 4.70781 3.01017e-15)
(37.1583 5.28092 7.13827e-17)
(38.3438 5.87606 -1.4067e-17)
(39.3969 6.50536 1.17297e-14)
(40.7 6.97984 -4.58614e-15)
(41.0814 7.44505 2.99261e-17)
(14.8788 34.0266 5.547e-19)
(15.8426 34.8566 0)
(16.9412 35.695 9.71689e-17)
(18.1014 36.4476 0)
(19.2722 37.0915 -4.09888e-16)
(20.4978 37.6596 4.23986e-16)
(21.7391 38.1324 5.558e-16)
(22.9736 38.4941 6.49962e-16)
(24.2092 38.7523 0)
(25.4306 38.907 -6.01671e-16)
(26.6334 38.9628 7.82168e-16)
(27.8185 38.9292 -1.48446e-15)
(28.9845 38.8151 -7.50972e-16)
(30.1095 38.5517 -7.19419e-16)
(31.1292 38.0731 1.53812e-15)
(32.2077 37.7962 1.52502e-15)
(33.8838 38.3552 -1.48358e-15)
(35.8663 38.8016 -1.408e-15)
(35.9702 36.4359 0)
(31.9393 29.8244 4.29744e-16)
(24.132 20.6676 -1.0272e-15)
(15.5428 12.3968 3.11782e-16)
(9.04651 7.60893 -3.23302e-18)
(4.99938 6.352 5.94061e-15)
(1.91822 6.51703 -3.37416e-16)
(-1.18338 6.34179 1.58175e-16)
(-4.5763 5.43916 6.84507e-16)
(-7.98253 3.95683 8.2702e-16)
(-10.4625 1.74066 3.06109e-15)
(-10.7591 -1.46578 -5.01313e-15)
(-8.40258 -4.71144 -3.04147e-15)
(-3.95915 -7.13227 -8.83371e-15)
(1.21751 -7.74625 5.98394e-15)
(6.26194 -7.18373 -7.54408e-17)
(10.516 -6.47872 3.0548e-15)
(14.3947 -6.42947 -9.42761e-17)
(18.3218 -7.09785 4.9382e-17)
(23.4823 -7.85001 -1.99288e-17)
(26.9572 -7.83363 2.28128e-15)
(13.9867 33.1427 1.55445e-18)
(13.1263 32.187 -4.84337e-17)
(12.2241 31.02 1.23866e-16)
(11.2918 29.6155 0)
(10.4398 28.065 4.66442e-16)
(9.67147 26.3181 0)
(9.02859 24.4025 0)
(8.5658 22.4184 0)
(8.30584 20.4422 2.28685e-15)
(8.24814 18.4989 -1.44206e-15)
(8.37974 16.6344 1.76499e-15)
(8.69016 14.8789 0)
(9.16356 13.2264 0)
(9.78177 11.677 -2.06097e-15)
(10.5351 10.236 0)
(11.4183 8.90218 2.01672e-15)
(12.4227 7.67863 3.83179e-17)
(13.539 6.57059 0)
(14.7574 5.58219 -2.69154e-15)
(16.0675 4.71758 -4.19785e-15)
(17.4576 3.98054 -3.09136e-15)
(18.916 3.37468 -2.891e-15)
(20.4306 2.90265 5.28597e-15)
(21.9835 2.56573 0)
(23.5472 2.36207 2.08716e-15)
(25.0942 2.28683 2.16536e-15)
(26.609 2.32755 9.25472e-16)
(28.0829 2.4734 0)
(29.5148 2.71061 -9.38199e-17)
(30.8973 3.0349 -6.66776e-16)
(32.2216 3.42255 2.34342e-15)
(33.497 3.86353 -1.12345e-17)
(34.7328 4.35021 -3.37733e-15)
(35.9404 4.87531 2.75511e-15)
(37.1147 5.43218 1.37246e-17)
(38.3021 6.0116 6.5983e-17)
(39.3693 6.62551 -1.12617e-14)
(40.6749 7.0854 4.26929e-15)
(41.1817 7.52076 5.17168e-15)
(15.7522 33.1668 -4.12507e-18)
(16.6443 33.9678 9.28858e-19)
(17.6661 34.7842 0)
(18.7473 35.5237 2.00402e-16)
(19.8387 36.163 0)
(20.9858 36.7342 0)
(22.151 37.2202 1.61411e-17)
(23.3124 37.6066 5.56699e-16)
(24.4794 37.8973 1.1353e-15)
(25.6391 38.0917 2.46916e-15)
(26.7882 38.193 1.24039e-15)
(27.9275 38.2033 1.28135e-15)
(29.0534 38.1339 0)
(30.1711 37.9884 2.05098e-15)
(31.2409 37.6672 -6.72485e-16)
(32.2055 37.1686 0)
(33.3828 37.0521 1.3643e-15)
(35.2864 37.6508 1.38204e-15)
(37.0224 37.3847 0)
(36.038 33.7462 1.43317e-15)
(30.7017 26.2728 -1.67085e-15)
(22.343 17.4576 0)
(14.2116 10.8508 -2.91828e-16)
(8.5124 8.10683 1.40332e-16)
(4.68228 7.70071 1.45546e-16)
(1.3693 7.38321 2.482e-15)
(-2.0674 6.30074 2.40496e-18)
(-5.58275 4.51829 -9.04042e-17)
(-8.30977 1.96267 -1.04119e-16)
(-8.94164 -1.71702 1.62524e-16)
(-6.97424 -5.42276 3.36571e-15)
(-2.8927 -8.06668 8.18994e-15)
(1.94479 -8.6314 1.32728e-16)
(6.6181 -7.87797 -3.88126e-15)
(10.6049 -7.00421 -2.68676e-15)
(14.3336 -6.88485 -3.92425e-15)
(18.2276 -7.5685 -2.55482e-15)
(23.3768 -8.28349 4.76735e-17)
(27.112 -8.20696 -2.06191e-15)
(14.9274 32.3173 -2.42209e-17)
(14.1346 31.4037 -1.63908e-16)
(13.3013 30.2939 3.70495e-16)
(12.4391 28.9617 0)
(11.6513 27.4984 8.97506e-16)
(10.9378 25.8542 0)
(10.3368 24.0537 -7.13565e-16)
(9.89839 22.1922 3.34658e-15)
(9.6432 20.3435 -3.07722e-15)
(9.56906 18.5312 0)
(9.66604 16.7912 3.15667e-15)
(9.92193 15.1498 3.38977e-15)
(10.3204 13.6016 0)
(10.8508 12.1425 -3.54202e-15)
(11.5058 10.7764 9.04225e-16)
(12.2832 9.50051 -8.83272e-16)
(13.1784 8.31765 8.87683e-16)
(14.1855 7.23279 1.67558e-15)
(15.2983 6.25203 -8.80449e-18)
(16.5089 5.38086 2.24562e-15)
(17.8075 4.62599 7.39423e-16)
(19.1835 3.9926 -6.7022e-16)
(20.6258 3.48543 -2.44717e-15)
(22.1166 3.10724 2.23532e-15)
(23.629 2.85851 -1.82142e-15)
(25.1349 2.73687 -2.14557e-15)
(26.6181 2.73208 -8.66488e-16)
(28.0685 2.83462 -1.18095e-17)
(29.4831 3.03113 9.9634e-17)
(30.8543 3.31786 6.27319e-16)
(32.1727 3.67292 4.4355e-18)
(33.4455 4.08538 -9.79775e-18)
(34.681 4.54715 3.32767e-15)
(35.8897 5.0516 -2.77811e-15)
(37.0668 5.59155 6.50957e-17)
(38.2561 6.15485 -3.69522e-15)
(39.3377 6.75283 5.38685e-15)
(40.6466 7.2018 0)
(41.272 7.61132 -4.93109e-15)
(16.5706 32.3893 2.49826e-18)
(17.4002 33.1631 0)
(18.3548 33.9569 0)
(19.366 34.6802 -3.97328e-16)
(20.3876 35.3108 -2.44886e-17)
(21.4657 35.8825 0)
(22.5608 36.3727 0)
(23.6568 36.7747 -2.02014e-15)
(24.7618 37.0884 -7.68152e-17)
(25.8648 37.3114 -7.41171e-17)
(26.9629 37.4473 -2.94695e-15)
(28.0583 37.4974 -6.6702e-16)
(29.1456 37.4618 1.21067e-15)
(30.2289 37.3578 -6.08919e-17)
(31.3137 37.1692 0)
(32.3297 36.7715 0)
(33.2804 36.2866 -3.91154e-15)
(34.6593 36.3272 -6.67586e-16)
(36.6954 36.7259 6.2034e-16)
(37.7732 35.4636 -1.33078e-15)
(35.3126 30.5362 2.88235e-15)
(28.6276 22.5883 1.67101e-15)
(20.0101 14.9108 -1.92959e-15)
(12.757 10.5187 -2.31707e-15)
(7.8752 9.15064 3.92584e-16)
(4.21051 8.51192 -2.35745e-15)
(0.753452 7.21641 -3.05734e-16)
(-2.79978 5.13058 8.82711e-17)
(-5.73939 2.23861 -1.02564e-16)
(-6.70713 -1.90342 3.13089e-16)
(-5.22553 -6.10422 8.90164e-18)
(-1.63397 -8.98517 -4.15551e-15)
(2.77867 -9.50272 -4.17763e-17)
(7.03513 -8.55898 3.13176e-17)
(10.7173 -7.52716 0)
(14.2702 -7.35082 3.55332e-15)
(18.1046 -8.05664 2.32412e-15)
(23.2138 -8.73784 0)
(27.1748 -8.59645 0)
(15.8041 31.572 0)
(15.0699 30.698 1.61033e-16)
(14.2976 29.6393 -6.08158e-16)
(13.497 28.3715 -3.38723e-16)
(12.7662 26.9864 -8.37421e-16)
(12.1025 25.4324 0)
(11.5406 23.733 0)
(11.127 21.9799 -1.56269e-15)
(10.8794 20.2447 1.95271e-15)
(10.796 18.5483 0)
(10.867 16.9193 -1.43549e-15)
(11.0798 15.3812 -1.57065e-15)
(11.4187 13.9291 1.56983e-15)
(11.877 12.5561 1.64752e-15)
(12.449 11.2643 -3.1617e-15)
(13.1348 10.0492 0)
(13.9327 8.91216 -7.80465e-16)
(14.8401 7.85804 2.16969e-18)
(15.8538 6.89306 3.61047e-15)
(16.9688 6.02368 -7.31574e-16)
(18.1776 5.25845 6.95457e-16)
(19.4712 4.60401 -5.9734e-16)
(20.8397 4.06713 8.47061e-16)
(22.2666 3.65194 -4.41651e-15)
(23.7251 3.36162 -1.68026e-15)
(25.1873 3.19602 1.64465e-15)
(26.6359 3.14745 -1.04651e-16)
(28.0601 3.20747 0)
(29.4551 3.36392 -8.30119e-17)
(30.8128 3.61289 5.58078e-16)
(32.1235 3.93511 -1.01242e-15)
(33.3923 4.31801 1.82885e-15)
(34.6263 4.75442 -6.30553e-15)
(35.8353 5.23671 5.40729e-15)
(37.0147 5.75891 -7.45054e-17)