# Probe 0 (-15.819 -1.832 0.025)
# Probe 1 (-5.938 4.179 0.025)
#       Probe             0             1
#        Time
            1         10880      -6995.42
            2       7749.32      -4949.64
            3       657.866      -40.9749
            4      -3972.96       2422.17
            5      -3430.22       1099.84
            6       150.131      -1928.89
            7       2964.77      -4166.57
            8       3237.46      -4762.66
            9       1682.49      -3988.79
           10       63.7118      -2921.69
           11      -442.867      -2336.47
           12        37.523      -2460.91
           13        932.05      -2964.53
           14        1494.6      -3262.68
           15        1461.5      -3132.33
           16       1010.82      -2753.07
           17       547.303       -2435.9
           18       369.836      -2350.33
           19       516.754      -2417.86
           20       830.066      -2498.94
           21       1045.95      -2483.36
           22       1039.84      -2397.37
           23        852.43       -2313.8
           24       650.016       -2293.6
           25        583.02      -2323.77
           26       668.051      -2352.89
           27       818.907      -2349.48
           28       906.374      -2323.01
           29       882.174      -2315.67
           30        780.62      -2338.68
           31       701.403      -2360.68
           32       691.869      -2333.23
           33       748.606      -2248.61
           34       818.001      -2120.79
           35       849.892      -1988.06
           36        830.99      -1880.94
           37       783.111      -1792.47
           38       756.002      -1688.01
           39       747.542      -1545.92
           40       767.265      -1369.85
           41       789.331      -1166.57
           42       808.843      -977.019
           43       816.285      -816.328
           44       800.585       -710.64
           45       783.231      -616.931
           46       767.135       -550.26
           47       759.941       -491.92
           48       764.074      -441.583
           49       776.231      -408.651
           50       791.679      -384.284
           51       794.581      -410.606
           52       785.264      -427.562
           53       774.052      -448.973
           54       769.534      -467.047
           55       773.674      -480.101
           56       783.341      -489.158
           57       792.666      -498.107
           58       796.822      -510.194
           59       795.245      -525.463
           60       791.263      -540.015
           61       788.922      -548.948
           62       790.118      -550.017
           63       794.195      -544.936
           64       798.173      -534.886
           65       799.583      -524.155
           66       797.499      -513.056
           67       792.937      -498.992
           68       788.178      -480.963
           69       784.882      -459.861
           70       783.322       -437.89
           71       782.643      -416.796
           72       781.322      -398.547
           73       777.992      -383.818
           74       772.485      -372.734
           75       766.098      -363.199
           76       760.372      -352.783
           77       756.305      -338.999
           78        753.86       -318.54
           79       752.439      -292.153
           80       751.327      -264.357
           81       750.275      -242.454
           82       749.272      -231.282
           83       748.768      -232.035
           84       748.961      -240.292
           85       749.907       -252.35
           86       751.324      -268.782
           87       752.808      -293.824
           88       754.222      -330.432
           89       755.666      -379.598
           90       757.555      -439.159
           91       760.214      -508.124
           92       763.496      -584.124
           93       767.134      -666.923
           94       770.439      -755.343
           95       773.209      -845.776
           96       775.685      -936.077
           97       778.331      -1018.87
           98       781.357       -1092.1
           99       783.554      -1133.75
          100       787.087      -1207.64
