# Probe 0 (-15.819 -1.832 0.025)
# Probe 1 (-5.938 4.179 0.025)
#       Probe             0             1
#        Time
            1             (26.8672 14.9709 -1.24624e-14)             (-10.2474 -3.32218 8.77661e-15)
            2             (-19.6237 -35.5077 -3.0486e-14)             (-37.6371 15.0055 2.21118e-14)
            3             (-32.9581 -46.6363 -2.68425e-15)             (-67.7051 26.8335 2.58387e-17)
            4             (11.0183 1.74493 4.98865e-14)             (-90.6682 27.6145 -4.38357e-15)
            5             (22.0499 18.3507 8.30233e-15)             (-104.727 15.5567 -1.78297e-15)
            6             (20.4132 21.659 -7.94627e-16)             (-111.409 -1.18729 2.49154e-15)
            7             (2.5111 19.0141 -2.23542e-14)             (-112.198 -7.43431 5.3473e-15)
            8             (-12.475 -2.10386 -2.06338e-14)             (-109.158 0.29298 6.02146e-15)
            9             (-14.4386 -23.1145 -1.11111e-14)             (-105.361 9.18455 4.97638e-15)
           10             (-7.95713 -14.8853 -2.36371e-16)             (-102.113 8.43055 3.42352e-15)
           11             (-0.812932 4.06955 2.60062e-15)             (-98.735 0.919724 2.65954e-15)
           12             (2.02167 13.1665 -1.90477e-16)             (-94.0513 -4.70618 2.88329e-15)
           13             (-0.680458 12.1506 -7.47333e-15)             (-88.3549 -4.18951 3.64919e-15)
           14             (-4.91609 5.09599 -1.16808e-14)             (-83.1094 -0.0721453 4.29097e-15)
           15             (-6.16631 1.03398 -1.07283e-14)             (-79.5511 2.78734 4.45852e-15)
           16             (-4.41102 2.15826 -7.07832e-15)             (-77.5442 2.10855 4.19276e-15)
           17             (-2.1974 5.27788 -3.59586e-15)             (-76.012 -0.755867 3.92051e-15)
           18             (-1.47461 7.23739 -2.35617e-15)             (-74.1425 -3.26814 3.96051e-15)
           19             (-2.37528 7.2351 -3.17026e-15)             (-71.863 -4.00553 4.23432e-15)
           20             (-3.88344 6.24379 -4.87193e-15)             (-69.4959 -3.06923 4.53882e-15)
           21             (-4.97423 5.43737 -5.95119e-15)             (-67.3504 -1.37484 4.69227e-15)
           22             (-5.2552 5.35912 -5.81597e-15)             (-65.5538 0.102197 4.74661e-15)
           23             (-4.98464 5.82088 -4.70881e-15)             (-64.0733 0.703184 4.83514e-15)
           24             (-4.68332 6.35127 -3.55833e-15)             (-62.7594 0.291208 5.08132e-15)
           25             (-4.6946 6.60777 -3.16311e-15)             (-61.476 -0.708333 5.44368e-15)
           26             (-5.02207 6.57251 -3.58542e-15)             (-60.2465 -1.52488 5.7851e-15)
           27             (-5.44126 6.43478 -4.3317e-15)             (-59.2411 -1.5207 5.99591e-15)
           28             (-5.72952 6.37575 -4.72717e-15)             (-58.6297 -0.586637 6.10123e-15)
           29             (-5.80595 6.45235 -4.54874e-15)             (-58.4018 0.842749 6.23194e-15)
           30             (-5.74063 6.59792 -3.99555e-15)             (-58.3035 2.10024 6.42783e-15)
           31             (-5.66494 6.7195 -3.57528e-15)             (-57.9779 2.71286 6.6431e-15)
           32             (-5.66874 6.75574 -3.52033e-15)             (-57.1775 2.62832 6.77537e-15)
           33             (-5.74841 6.72261 -3.80485e-15)             (-55.8436 2.19784 6.79837e-15)
           34             (-5.83887 6.6673 -4.15056e-15)             (-54.0069 1.91147 6.82595e-15)
           35             (-5.87601 6.63744 -4.30779e-15)             (-51.8685 2.04975 6.61794e-15)
           36             (-5.84236 6.64027 -4.21225e-15)             (-49.5624 2.57388 6.36791e-15)
           37             (-5.76851 6.65577 -3.97634e-15)             (-47.1873 3.24985 6.18847e-15)
           38             (-5.69996 6.65953 -3.84961e-15)             (-44.9265 3.8192 5.89703e-15)
           39             (-5.66227 6.63637 -3.82117e-15)             (-42.8748 4.20439 5.40334e-15)
           40             (-5.65068 6.60322 -3.93492e-15)             (-40.9607 4.51268 4.72884e-15)
           41             (-5.64377 6.56926 -4.05697e-15)             (-39.0143 4.86119 3.94686e-15)
           42             (-5.62359 6.5492 -4.16813e-15)             (-36.8227 5.27549 3.23363e-15)
           43             (-5.58895 6.53197 -4.21754e-15)             (-34.3964 5.74387 2.66456e-15)
           44             (-5.54625 6.51094 -4.15013e-15)             (-31.6261 6.20182 2.30424e-15)
           45             (-5.49953 6.48791 -4.076e-15)             (-28.5201 6.58388 1.99525e-15)
           46             (-5.45084 6.46113 -4.00958e-15)             (-24.557 6.73949 1.82305e-15)
           47             (-5.39392 6.43658 -3.99022e-15)             (-19.7728 6.6038 1.71655e-15)
           48             (-5.32047 6.41238 -4.03188e-15)             (-14.2979 6.13412 1.65387e-15)
           49             (-5.22513 6.3813 -4.1195e-15)             (-8.67905 5.33134 1.67819e-15)
           50             (-5.09859 6.33462 -4.23139e-15)             (-3.53934 4.30589 1.7826e-15)
           51             (-4.9444 6.27318 -4.28962e-15)             (0.475743 3.22553 2.11873e-15)
           52             (-4.75726 6.19293 -4.28392e-15)             (2.93491 2.27786 2.45352e-15)
           53             (-4.53232 6.1116 -4.28629e-15)             (4.12796 1.52888 3.04875e-15)
           54             (-4.27295 6.01804 -4.33226e-15)             (4.40292 1.00531 3.77306e-15)
           55             (-3.98924 5.90874 -4.43939e-15)             (3.97499 0.688802 4.56203e-15)
           56             (-3.68177 5.78194 -4.59347e-15)             (3.02291 0.528817 5.28735e-15)
           57             (-3.34343 5.63908 -4.76383e-15)             (1.78125 0.450635 6.01466e-15)
           58             (-2.96731 5.4836 -4.92384e-15)             (0.454381 0.361688 7.13072e-15)
           59             (-2.55323 5.31851 -5.07012e-15)             (-0.863669 0.199576 8.65095e-15)
           60             (-2.10928 5.14335 -5.22439e-15)             (-2.03749 -0.0467052 1.04754e-14)
           61             (-1.64566 4.95372 -5.41703e-15)             (-2.66565 -0.252665 1.12898e-14)
           62             (-1.16935 4.74865 -5.66327e-15)             (-2.83824 -0.31204 9.25244e-15)
           63             (-0.685082 4.53239 -5.96399e-15)             (-2.73839 -0.310907 7.20603e-15)
           64             (-0.197024 4.31248 -6.30052e-15)             (-2.5494 -0.243341 6.47078e-15)
           65             (0.290409 4.09545 -6.6544e-15)             (-2.18694 -0.105115 5.73255e-15)
           66             (0.762093 3.88812 -6.73444e-15)             (-1.6622 0.0497834 5.82834e-15)
           67             (1.22312 3.68475 -6.7524e-15)             (-0.757428 0.184075 5.49095e-15)
           68             (1.67182 3.48505 -6.76821e-15)             (0.520084 0.273647 5.20596e-15)
           69             (2.10197 3.29214 -6.79465e-15)             (2.22532 0.326148 4.69099e-15)
           70             (2.50873 3.1089 -6.83351e-15)             (4.32121 0.344963 3.95186e-15)
           71             (2.89011 2.93657 -6.81554e-15)             (6.79826 0.329957 3.32096e-15)
           72             (3.24398 2.77683 -6.58853e-15)             (9.56346 0.269763 2.86515e-15)
           73             (3.57418 2.63011 -6.37444e-15)             (12.4814 0.155638 2.52111e-15)
           74             (3.87473 2.49999 -6.16811e-15)             (15.3783 -0.00409294 2.27869e-15)
           75             (4.13898 2.38897 -5.97977e-15)             (18.0575 -0.191666 2.08849e-15)
           76             (4.3644 2.29733 -5.82009e-15)             (20.3414 -0.399659 1.92118e-15)
           77             (4.55307 2.22322 -5.69421e-15)             (22.0962 -0.633327 1.76446e-15)
           78             (4.70869 2.16392 -5.59742e-15)             (23.244 -0.897084 1.61226e-15)
           79             (4.83511 2.11718 -5.52316e-15)             (23.7649 -1.17972 1.47568e-15)
           80             (4.93597 2.08127 -5.46305e-15)             (23.7105 -1.45114 1.32613e-15)
           81             (5.0154 2.0551 -5.41331e-15)             (23.1464 -1.68818 1.20302e-15)
           82             (5.07704 2.03763 -5.37171e-15)             (22.123 -1.88921 1.13759e-15)
           83             (5.12307 2.02801 -5.34044e-15)             (20.6853 -2.0589 1.14063e-15)
           84             (5.15288 2.02563 -5.32014e-15)             (18.8837 -2.20383 1.18312e-15)
           85             (5.16419 2.03049 -5.31195e-15)             (16.7494 -2.32071 1.25032e-15)
           86             (5.15438 2.04331 -5.31427e-15)             (14.2904 -2.4005 1.34751e-15)
           87             (5.12214 2.06518 -5.32518e-15)             (11.5218 -2.428 1.50142e-15)
           88             (5.06714 2.09707 -5.34421e-15)             (8.48303 -2.37309 1.73498e-15)
           89             (4.98889 2.13935 -5.37273e-15)             (5.18446 -2.20628 2.10345e-15)
           90             (4.88605 2.19187 -5.41459e-15)             (1.70216 -1.92664 2.62145e-15)
           91             (4.75702 2.25425 -5.4729e-15)             (-1.86278 -1.53684 3.21639e-15)
           92             (4.60101 2.32624 -5.54762e-15)             (-5.36153 -1.10747 3.83764e-15)
           93             (4.41853 2.40776 -5.63779e-15)             (-8.58742 -0.712634 4.16292e-15)
           94             (4.21085 2.49881 -5.73925e-15)             (-11.5934 -0.352564 4.54171e-15)
           95             (3.97902 2.5995 -5.85116e-15)             (-14.325 -0.0228352 4.91175e-15)
           96             (3.72276 2.70993 -5.97666e-15)             (-16.7306 0.284778 5.28761e-15)
           97             (3.4416 2.82994 -6.12182e-15)             (-18.7747 0.558126 5.63222e-15)
           98             (3.13489 2.95941 -6.28888e-15)             (-20.4498 0.803769 5.92053e-15)
           99             (2.81524 3.09335 -6.47441e-15)             (-21.7502 1.00961 6.0507e-15)
          100             (2.46762 3.23899 -6.67112e-15)             (-22.7356 1.18235 6.32036e-15)
