/*--------------------------------*- C++ -*----------------------------------*\
| =========                 |                                                 |
| \\      /  F ield         | OpenFOAM: The Open Source CFD Toolbox           |
|  \\    /   O peration     | Version:  v1806                                 |
|   \\  /    A nd           | Web:      www.OpenFOAM.com                      |
|    \\/     M anipulation  |                                                 |
\*---------------------------------------------------------------------------*/
FoamFile
{
    version     2.0;
    format      ascii;
    class       volScalarField;
    location    "50";
    object      mag(U);
}
// * * * * * * * * * * * * * * * * * * * * * * * * * * * * * * * * * * * * * //

dimensions      [0 1 -1 0 0 0 0];


internalField   nonuniform List<scalar> 
10720
(
54.6423
51.804
47.1069
39.7595
30.0349
18.2925
5.93679
3.15324
6.76252
9.04112
9.69598
8.59997
6.24396
4.37568
3.78814
4.03042
8.67096
23.9555
35.9497
40.0889
35.1319
24.3913
10.8246
4.53412
13.9422
15.7509
9.86247
5.95322
10.4475
1.22548
17.8221
31.8979
41.275
46.4607
47.6304
45.1794
38.8894
27.8639
13.4743
56.4719
57.0208
56.9135
55.1516
52.6853
49.2173
44.8634
39.8731
34.6346
29.3999
24.3179
19.5682
15.2133
11.2424
7.63703
4.3709
1.56994
1.58273
4.01019
6.5094
8.87726
11.1373
13.3328
15.4638
17.4882
19.3893
21.181
22.8751
24.474
25.9911
27.4449
28.8435
30.2132
31.5879
33.0247
34.5665
36.4803
38.5222
43.8665
56.274
57.5124
58.4138
58.392
56.6849
51.9953
43.0662
30.146
14.7613
1.83306
6.0382
7.20961
8.01908
6.10171
0.666157
9.71686
23.6672
33.6618
38.4877
38.8137
34.7973
24.6728
11.8134
6.11162
12.3895
16.354
13.2631
10.383
7.01327
14.8139
32.2448
41.4521
46.1735
48.105
47.8789
45.1607
38.5827
27.5693
13.5466
54.7621
53.3482
51.6044
49.6881
47.156
44.0785
40.4201
36.3162
31.9518
27.4895
23.0789
18.8467
14.8653
11.1706
7.78127
4.7354
2.32393
2.15868
4.20281
6.56609
8.87854
11.124
13.3258
15.4806
17.553
19.5229
21.3971
23.1834
24.8813
26.5029
28.0623
29.5669
31.04
32.5147
34.0462
35.6743
37.6818
39.7292
45.3197
50.3823
51.0224
52.0127
53.6115
55.6822
57.5565
57.3005
52.6038
41.8649
26.1395
9.9953
1.30477
6.78074
7.23104
7.72586
19.1753
27.7656
32.0439
35.9312
37.7126
34.2811
25.4384
14.331
8.23955
10.874
13.9056
12.761
9.76256
5.57383
24.7567
34.9898
40.4804
44.6192
47.1214
47.2365
44.4306
37.9142
27.2848
14.3469
49.7301
48.8598
47.4921
45.6856
43.4046
40.6346
37.4066
33.8316
30.0282
26.1013
22.1733
18.3504
14.7016
11.2786
8.1316
5.35924
3.32909
3.05756
4.61378
6.74604
8.94817
11.1311
13.2902
15.4151
17.4721
19.4389
21.3187
23.119
24.8403
26.496
28.1004
29.6618
31.2034
32.7572
34.3775
36.0982
38.2113
40.3019
45.8304
47.9543
48.8072
49.5604
50.3557
51.4688
53.3778
55.9703
57.7877
55.9589
47.7181
32.5971
15.0646
1.90666
5.98471
11.4352
22.0575
26.5764
29.2401
33.5639
35.911
33.534
26.4848
17.4459
10.8586
9.4242
11.5269
11.2494
6.01525
15.0523
28.3617
33.9931
39.1481
43.825
46.5973
46.7483
43.9306
37.5019
27.2926
15.6123
47.0302
45.9547
44.5957
42.871
40.7449
38.1991
35.2556
32.0186
28.5897
25.0504
21.4968
18.0171
14.6727
11.5211
8.63552
6.15382
4.4292
4.08452
5.2152
7.06365
9.11323
11.2069
13.3065
15.3897
17.4204
19.3726
21.2448
23.042
24.7645
26.4242
28.0351
29.606
31.1597
32.7279
34.3647
36.1045
38.2327
40.3483
45.5725
45.965
46.8655
47.7279
48.5629
49.3564
50.351
52.0215
54.6718
57.322
56.9538
49.7604
34.6911
15.8211
1.39019
11.9049
21.3889
23.9946
26.1688
30.366
33.1224
32.0887
27.2992
20.5055
13.8487
8.43077
9.24086
9.09521
6.29914
21.296
28.6902
33.0065
38.6068
43.4992
46.3112
46.473
43.6684
37.3484
27.5756
17.1672
44.9889
43.8526
42.4149
40.6746
38.6259
36.2328
33.5092
30.5475
27.4319
24.2216
20.9941
17.8261
14.7716
11.8905
9.2687
7.05628
5.5529
5.15379
5.95498
7.51108
9.3765
11.3548
13.3765
15.4046
17.3983
19.3279
21.1863
22.9754
24.6943
26.3535
27.9657
29.5396
31.097
32.6685
34.3073
36.0487
38.1643
40.2927
45.1773
44.3005
45.3089
46.3163
47.3123
48.2416
49.1315
50.0831
51.5151
53.9738
56.7891
56.7558
49.3492
33.3083
13.3177
12.2773
20.5745
21.8732
22.8827
26.1843
29.1881
29.6095
27.4166
23.0453
16.9427
8.36082
6.86599
6.58138
12.3834
24.2733
28.2366
32.665
38.4848
43.39
46.2006
46.381
43.6127
37.4347
28.1257
18.8767
43.2629
42.1076
40.6879
38.988
37.0163
34.7434
32.1836
29.4293
26.5575
23.6137
20.6621
17.77
14.984
12.3621
9.99278
8.01916
6.67954
6.23823
6.78611
8.06648
9.73022
11.5723
13.4993
15.4596
17.4064
19.3053
21.1438
22.9203
24.6323
26.2881
27.8996
29.4749
31.0343
32.6076
34.2464
35.987
38.0862
40.2201
44.7992
43.0085
44.0599
45.1157
46.1776
47.1923
48.1985
49.1554
50.0812
51.3793
53.6929
56.4499
55.9715
47.407
29.4533
17.156
21.4571
21.5
20.179
21.4009
24.17
25.9716
26.5893
24.7947
19.782
9.366
4.27953
6.22362
17.7439
25.3699
28.0109
32.7559
38.5659
43.4149
46.2112
46.4188
43.7117
37.7126
28.9053
20.7336
41.9287
40.7493
39.3223
37.6436
35.7358
33.5656
31.145
28.5657
25.9009
23.1861
20.4765
17.8327
15.2946
12.9152
10.7789
9.01109
7.7968
7.32368
7.67617
8.70948
10.1673
11.8584
13.6763
15.5568
17.4468
19.3067
21.1189
22.8778
24.579
26.2286
27.837
29.4119
30.9722
32.5461
34.1844
35.9233
38.0045
40.1394
44.4324
41.9204
42.9976
44.0951
45.2028
46.2631
47.3318
48.3892
49.3724
50.2894
51.5306
53.8452
56.4342
55.1471
44.2322
28.389
24.7887
23.4726
19.4612
16.9155
18.2688
21.2644
24.8294
25.6709
22.0532
11.0616
1.53949
9.79711
21.2826
25.7251
28.1616
33.0721
38.7617
43.5213
46.2922
46.532
43.9092
38.1234
29.8299
22.5714
40.8265
39.6459
38.2326
36.5837
34.7355
32.6524
30.349
27.9181
25.4294
22.9125
20.4166
17.9961
15.6844
13.5278
11.6016
10.0109
8.89724
8.40181
8.60236
9.42078
10.6782
12.21
13.9072
15.6972
17.521
19.3339
21.1133
22.8495
24.5359
26.176
27.7789
29.3515
30.9111
32.4848
34.1215
35.8577
37.9194
40.0505
44.0812
41.0301
42.123
43.2442
44.3818
45.4709
46.5661
47.6643
48.7432
49.7497
50.6654
51.9869
54.4998
57.1017
54.1422
41.9685
31.9421
27.5139
21.6636
14.6329
11.8388
15.6689
22.3291
25.6811
23.5183
12.7953
2.34112
14.2067
23.3021
25.9463
28.5939
33.512
39.0212
43.6594
46.3892
46.6608
44.1434
38.6039
30.8199
24.2751
39.9289
38.753
37.3551
35.7378
33.9445
31.9416
29.7432
27.4423
25.1088
22.7672
20.4619
18.2428
16.1363
14.1816
12.4423
11.0046
9.97537
9.46695
9.54857
10.1836
11.2524
12.6227
14.1911
15.8816
17.6304
19.3885
21.1285
22.8368
24.5042
26.1316
27.7263
29.2944
30.8518
32.4239
34.058
35.7903
37.8307
39.9539
43.7366
40.2931
41.3889
42.5251
43.68
44.7897
45.9102
47.0259
48.1344
49.2438
50.272
51.2597
52.8639
55.9846
58.2637
53.205
42.5941
34.1247
26.4759
16.7046
6.53024
9.52742
19.4298
24.8256
24.0037
14.0256
5.88163
17.7357
24.3414
26.2611
29.1923
34.0061
39.2915
43.7812
46.4547
46.7529
44.3547
39.0915
31.8189
25.8165
39.1917
38.0268
36.6499
35.0651
33.326
31.3962
29.2923
27.1087
24.9136
22.7286
20.5944
18.5567
16.6355
14.8616
13.2883
11.9828
11.0279
10.5146
10.5034
10.9835
11.8797
13.0912
14.5263
16.1101
17.7762
19.4721
21.1662
22.8411
24.4851
26.0962
27.6799
29.2413
30.7947
32.3638
33.994
35.7209
37.7384
39.8487
43.4026
39.6799
40.7733
41.9168
43.0813
44.2026
45.3358
46.4682
47.5906
48.7325
49.8832
50.9786
52.1621
54.4148
58.2547
59.3469
53.3444
43.6645
33.8646
22.8178
9.5673
5.40893
16.8106
23.1213
23.3932
14.4802
8.99009
20.0378
24.8551
26.7146
29.8717
34.5057
39.5352
43.851
46.448
46.7609
44.4863
39.5218
32.7734
27.219
38.586
37.4354
36.0821
34.5322
32.8444
30.9842
28.9683
26.8915
24.8218
22.7782
20.7985
18.9243
17.1692
15.5566
14.1304
12.9406
12.0527
11.5413
11.458
11.8086
12.55
13.6092
14.9099
16.3819
17.9588
19.5857
21.2278
22.8639
24.48
26.0712
27.6408
29.193
30.7403
32.3049
33.9297
35.6497
37.6424
39.736
43.0735
39.1704
40.2574
41.4014
42.568
43.6932
44.8361
45.9768
47.1086
48.261
49.4518
50.6812
51.9096
53.4994
56.709
60.6212
60.387
53.8796
43.7711
31.9181
18.7996
10.4012
15.7342
20.8159
21.6933
14.0611
11.1635
21.285
25.1468
27.279
30.5698
34.9726
39.7228
43.8449
46.3459
46.6581
44.5005
39.8432
33.6316
28.5085
38.0866
36.9553
35.6278
34.1133
32.4768
30.6822
28.7483
26.7706
24.8156
22.9008
21.0608
19.3334
17.727
16.2585
14.9622
13.8748
13.0488
12.5444
12.406
12.6494
13.2538
14.1701
15.3383
16.6958
18.1783
19.7304
21.3145
22.9066
24.4901
26.0575
27.6099
29.1502
30.6893
32.2475
33.8654
35.5766
37.5428
39.6149
42.7532
38.747
39.8236
40.9625
42.1293
43.2531
44.3957
45.54
46.6763
47.8322
49.0253
50.2942
51.6434
53.0819
55.3373
59.2508
62.5252
61.0512
53.9107
42.8638
30.0108
19.5042
17.4213
18.6004
19.1109
12.9084
12.4022
21.8188
25.3984
27.9158
31.2502
35.3891
39.8439
43.7559
46.1377
46.4285
44.3757
40.0221
34.3521
29.6761
37.6782
36.5668
35.2673
33.7896
32.2022
30.4711
28.6149
26.7293
24.8802
23.0831
21.3698
19.7745
18.3012
16.9609
15.7792
14.7835
14.0154
13.5221
13.3426
13.498
13.9828
14.7674
15.8073
17.0496
18.4343
19.9066
21.4273
22.9704
24.5167
26.0565
27.5883
29.1138
30.6424
32.1922
33.8014
35.5021
37.4399
39.4868
42.4372
38.3975
39.4607
40.5907
41.7501
42.866
44.0071
45.1475
46.2797
47.4336
48.6192
49.8729
51.2487
52.7259
54.4836
57.384
61.3215
63.4412
60.7827
52.8542
41.3749
29.8284
22.0126
17.5091
16.1292
11.1131
13.0121
21.9943
25.7073
28.5923
31.8919
35.7436
39.8923
43.5802
45.8233
46.0746
44.1109
40.0485
34.9099
30.6944
37.3442
36.2557
34.9849
33.5442
32.0062
30.3354
28.5529
26.7538
25.003
23.3138
21.7158
20.2394
18.8852
17.6592
16.5796
15.6666
14.9522
14.4733
14.2641
14.3477
14.7296
15.3944
16.3123
17.4408
18.7258
20.1143
21.5671
23.0562
24.561
26.0691
27.5769
29.0846
30.6
32.1394
33.7378
35.4258
37.3336
39.3509
42.1287
38.1091
39.1565
40.2743
41.4232
42.5291
43.6599
44.7929
45.9159
47.057
48.2263
49.4487
50.7788
52.2453
53.8419
55.9225
59.0396
62.227
62.8847
58.8919
50.2314
39.2261
28.2497
18.635
13.599
8.85434
13.3685
22.1084
26.1291
29.2943
32.4918
36.0385
39.8763
43.3288
45.4166
45.6091
43.7149
39.9229
35.2897
31.54
37.0745
36.0089
34.7685
33.3654
31.8748
30.263
28.5508
26.8331
25.1735
23.5839
22.0908
20.7218
19.4744
18.3502
17.3619
16.524
15.8593
15.3974
15.1676
15.1937
15.4874
16.045
16.8487
17.8664
19.0512
20.3533
21.7342
23.1651
24.6239
26.0965
27.5768
29.0636
30.5631
32.0896
33.6752
35.3484
37.2245
39.2088
41.8243
37.8741
38.9037
40.0065
41.1397
42.2322
43.3517
44.4705
45.5773
46.6995
47.8425
49.0257
50.2867
51.6669
53.1645
54.8228
56.9841
59.6434
61.48
60.3137
54.7705
45.6036
34.3998
21.9
12.871
6.40837
13.792
22.378
26.698
30.0206
33.0548
36.2831
39.8073
43.0169
44.9391
45.0596
43.2141
39.6613
35.4892
32.1984
36.8586
35.8176
34.6076
33.2419
31.7988
30.2434
28.5984
26.9578
25.3834
23.8856
22.4883
21.2163
20.0649
19.0319
18.1258
17.3555
16.7371
16.2941
16.0511
16.0316
16.2509
16.7134
17.4115
18.3231
19.4086
20.6228
21.9287
23.2976
24.7065
26.1396
27.5888
29.0515
30.5323
32.0434
33.6138
35.2698
37.1124
39.0599
41.5268
37.6837
38.6941
39.7795
40.8964
41.9727
43.0733
44.1754
45.2625
46.3585
47.4676
48.604
49.7921
51.0579
52.4188
53.8443
55.3909
57.1673
58.7478
58.7213
55.413
48.4221
38.3975
25.9723
14.4817
5.01138
14.5747
22.9508
27.4434
30.7867
33.5993
36.4983
39.7068
42.6698
44.4196
44.4561
42.639
39.2857
35.5094
32.6543
36.6895
35.673
34.4941
33.1662
31.7686
30.2683
28.6879
27.12
25.6252
24.2123
22.9027
21.719
20.654
19.7028
18.8709
18.1617
17.5865
17.1634
16.9134
16.8581
17.0151
17.3943
17.996
18.8071
19.7957
20.9217
22.1505
23.4541
24.8094
26.1993
27.6141
29.0494
30.5085
32.0014
33.5543
35.1907
36.9982
38.9058
41.233
37.533
38.5227
39.5889
40.6859
41.7428
42.8245
43.9048
44.9673
46.0342
47.1046
48.1884
49.3025
50.4562
51.6609
52.8915
54.0868
55.2116
56.1235
56.1176
53.9036
48.6674
40.329
29.3118
18.0145
6.47733
15.9385
23.9147
28.3888
31.614
34.1517
36.7085
39.5966
42.3068
43.878
43.8229
42.0203
38.8283
35.366
32.8871
36.56
35.569
34.4209
33.1303
31.778
30.3307
28.8119
27.3132
25.8931
24.5588
23.3298
22.2265
21.2395
20.3621
19.5967
18.943
18.408
18.0056
17.7534
17.6707
17.776
18.0828
18.5975
19.3147
20.21
21.2484
22.3989
23.6348
24.9332
26.2765
27.6533
29.0581
30.4922
31.9643
33.4969
35.1111
36.8816
38.7462
40.9457
37.4157
38.384
39.4299
40.5064
41.5419
42.6003
43.6578
44.6939
45.7276
46.7563
47.7856
48.8262
49.8772
50.9365
51.981
52.9366
53.6774
54.0549
53.7022
51.8226
47.7093
40.9337
31.6308
21.482
10.1922
17.9306
25.3099
29.5563
32.5331
34.7464
36.9424
39.4943
41.9376
43.32
43.1657
41.3723
38.3135
35.079
32.8782
36.4654
35.4994
34.3825
33.129
31.8202
30.4245
28.9652
27.532
26.1819
24.9207
23.7659
22.7357
21.8194
21.009
20.3035
19.7002
19.2025
18.8212
18.5703
18.4674
18.5303
18.7747
19.2117
19.8421
20.6484
21.6011
22.673
23.8394
25.0783
26.3717
27.7073
29.0783
30.4846
31.9327
33.4424
35.0318
36.7637
38.5827
40.6622
37.3284
38.2745
39.2989
40.3527
41.3655
42.4023
43.4334
44.4403
45.4404
46.4267
47.4017
48.372
49.3301
50.2648
51.1469
51.91
52.4175
52.4881
51.8448
50.0063
46.5344
40.9666
33.2282
24.3983
14.4893
20.4933
27.1258
30.9603
33.5777
35.4183
37.224
39.4062
41.5547
42.7294
42.4682
40.6904
37.7556
34.6786
32.629
36.4003
35.4599
34.3736
33.1565
31.8909
30.5449
29.1424
27.7718
26.4876
25.2943
24.208
23.2447
22.3927
21.6427
20.9914
20.4338
19.9711
19.6107
19.3641
19.2465
19.275
19.4663
19.8345
20.3855
21.1078
21.9777
22.9716
24.0675
25.2446
26.4854
27.7767
29.1108
30.486
31.9073
33.3911
34.9529
36.6444
38.4153
40.3849
37.2663
38.1903
39.1926
40.224
41.2136
42.2249
43.2299
44.2076
45.1729
46.1175
47.0412
47.9466
48.8229
49.6535
50.4053
51.0153
51.3644
51.2805
50.508
48.7005
45.6259
40.9378
34.5121
26.9867
18.7903
23.4897
29.3206
32.6121
34.7832
36.2006
37.5644
39.3211
41.1282
42.0701
41.6963
39.9504
37.1501
34.1903
32.1722
36.3613
35.446
34.3903
33.2093
31.9852
30.6875
29.3399
28.0285
26.8062
25.6763
24.6533
23.7513
22.9581
22.2627
21.6605
21.1447
20.7144
20.3748
20.1346
20.0069
20.0079
20.1543
20.4622
20.9412
21.5852
22.3757
23.2931
24.3182
25.4321
26.6179
27.8621
29.1563
30.4975
31.8888
33.344
34.8753
36.5248
38.2457
40.1117
37.2273
38.1288
39.1085
40.1163
41.0823
42.0697
43.0466
43.9944
44.9264
45.8314
46.7073
47.555
48.3612
49.1071
49.7589
50.2568
50.4984
50.3418
49.5646
47.8713
45.1242
41.1039
35.7418
29.4077
22.8978
26.7759
31.8415
34.5202
36.1779
37.1132
37.9602
39.2133
40.618
41.2958
40.8051
39.1155
36.4788
33.6362
31.5672
36.3448
35.4546
34.429
33.2832
32.1
30.8487
29.5537
28.2988
27.1349
26.0643
25.0997
24.2541
23.5144
22.8688
22.3111
21.8336
21.4334
21.1139
20.8817
20.7479
20.7272
20.836
21.0913
21.5055
22.0773
22.7925
23.6357
24.5905
25.6403
26.7691
27.9638
29.2151
30.5193
31.8777
33.3013
34.7993
36.4051
38.074
39.8449
37.2078
38.0871
39.0443
40.0289
40.9713
41.9328
42.8835
43.8026
44.702
45.5699
46.4029
47.2004
47.9483
48.6276
49.2057
49.629
49.8078
49.6289
48.9162
47.4145
45.0073
41.5507
37.0353
31.7191
26.7547
30.2415
34.6379
36.6817
37.7701
38.1509
38.387
39.0372
39.969
40.3502
39.7449
38.1461
35.714
33.0215
30.8799
36.3482
35.4825
34.4865
33.3755
32.2315
31.0254
29.7811
28.58
27.4711
26.4561
25.5458
24.7519
24.0612
23.4607
22.9436
22.501
22.1289
21.8289
21.6058
21.4689
21.4314
21.509
21.7188
22.0754
22.5809
23.2255
23.9972
24.8831
25.8684
26.9389
28.0819
29.2879
30.5522
31.8748
33.2638
34.726
36.2863
37.902
39.5828
37.2062
38.0632
38.9978
39.9589
40.8781
41.8158
42.74
43.6313
44.5005
45.3347
46.1297
46.8847
47.5858
48.215
48.7423
49.1217
49.2764
49.1142
48.5028
47.2373
45.2018
42.2708
38.4327
33.9552
30.3821
33.8095
37.6544
39.0655
39.5303
39.2764
38.8012
38.7417
39.1245
39.1779
38.4639
36.9999
34.8224
32.3358
30.1631
36.3687
35.5273
34.5603
33.483
32.3776
31.2149
30.0192
28.8696
27.8125
26.8494
25.9896
25.2436
24.5976
24.0383
23.5581
23.1475
22.8015
22.5203
22.3071
22.1697
22.1195
22.1713
22.3421
22.6478
23.0931
23.6719
24.3756
25.1942
26.1155
27.1268
28.2163
29.3746
30.5965
31.8804
33.232
34.6555
36.1687
37.7299
39.3276
37.2196
38.055
38.9673
39.9057
40.8021
41.7155
42.6155
43.4807
44.3217
45.1258
45.8884
46.6086
47.2736
47.8673
48.3636
48.7237
48.8852
48.7718
48.2855
47.2738
45.6329
43.2189
39.9429
36.1613
33.8538
37.4365
40.8212
41.6042
41.3877
40.4223
39.1409
38.2644
38.0145
37.71
36.9025
35.6349
33.7737
31.5538
29.4402
36.4043
35.5864
34.6479
33.6038
32.5354
31.415
30.266
29.1653
28.1574
27.2429
26.4301
25.7283
25.1234
24.6017
24.1553
23.774
23.4521
23.1889
22.9861
22.85
22.7906
22.8215
22.9591
23.2199
23.6109
24.129
24.7685
25.5222
26.3804
27.3322
28.367
29.4757
30.6526
31.8951
33.2068
34.589
36.0536
37.5593
39.0778
37.2467
38.0607
38.951
39.8669
40.7413
41.6325
42.5087
43.3494
44.1653
44.9432
45.6786
46.3713
47.0101
47.5813
48.063
48.4239
48.615
48.5755
48.2321
47.4773
46.2371
44.3415
41.5668
38.4015
37.2652
41.098
44.0598
44.2137
43.2577
41.5143
39.3489
37.5492
36.5702
35.8717
34.9924
34.0036
32.5377
30.6442
28.6963
36.4528
35.6582
34.7473
33.7355
32.7033
31.6235
30.5193
29.4654
28.5041
27.6351
26.8661
26.2053
25.638
25.1509
24.7354
24.381
24.0816
23.8354
23.6433
23.5099
23.4441
23.4582
23.5678
23.7894
24.1318
24.5941
25.1734
25.865
26.6615
27.5541
28.5333
29.5908
30.7206
31.9192
33.1882
34.5267
35.9411
37.3908
38.8358
37.2854
38.0787
38.9476
39.8418
40.6949
41.5641
42.4189
43.2372
44.0304
44.7859
45.4993
46.1713
46.7925
47.3523
47.8331
48.2105
48.4479
48.4999
48.3122
47.8109
46.9635
45.5892
43.3069
40.7459
40.6872
44.7583
47.3031
46.8207
45.0754
42.4967
39.3855
36.5498
34.7167
33.5696
32.6478
32.0569
31.0961
29.585
27.8914
36.5128
35.7406
34.8568
33.8764
32.8791
31.8385
30.7775
29.7682
28.8511
28.025
27.2969
26.674
26.1416
25.6861
25.2989
24.9693
24.6907
24.4606
24.279
24.1496
24.0796
24.0803
24.1663
24.354
24.653
25.0647
25.588
26.2206
26.9575
27.7915
28.7149
29.7199
30.8007
31.9532
33.1771
34.4696
35.8326
37.2257
38.6001
37.3345
38.1074
38.9554
39.8283
40.6613
41.5103
42.3444
43.1427
43.9163
44.6529
45.3489
46.0061
46.6171
47.1745
47.6652
48.0714
48.367
48.5212
48.4971
48.2426
47.7713
46.9186
45.1636
43.245
44.148
48.3863
50.5084
49.3925
46.8187
43.3537
39.2409
35.2454
32.388
30.7069
29.7774
29.7483
29.4408
28.3711
26.9839
36.5823
35.8322
34.9746
34.0247
33.0613
32.0585
31.039
30.0723
29.1972
28.4114
27.7215
27.134
26.6338
26.2076
25.8463
25.5396
25.2801
25.0651
24.8938
24.769
24.6968
24.6871
24.7534
24.9117
25.1724
25.5382
26.0098
26.5869
27.2664
28.0431
28.9106
29.8624
30.8928
31.997
33.1738
34.4181
35.7283
37.0647
38.3731
37.3922
38.1455
38.9733
39.8258
40.6393
41.4688
42.2847
43.065
43.8214
44.5426
45.2254
45.873
46.4799
47.042
47.5508
47.9942
48.3559
48.6177
48.7597
48.7437
48.6259
48.2886
47.1228
45.914
47.6472
51.9548
53.6565
51.9465
48.5194
44.1103
38.9357
33.6457
29.5326
27.1778
26.2831
27.0486
27.5894
27.029
25.964
36.6602
35.9314
35.0993
34.1792
33.2483
32.2821
31.3024
30.3764
29.5411
28.7935
28.1395
27.5848
27.1145
26.7152
26.378
26.0922
25.8506
25.6497
25.4884
25.3686
25.2955
25.2778
25.3279
25.461
25.6878
26.0123
26.4366
26.9617
27.5864
28.3074
29.1198
30.0179
30.9967
32.0512
33.1787
34.3732
35.6296
36.909
38.1536
37.4577
38.1917
38.9997
39.8326
40.6277
41.4393
42.2377
43.0023
43.7443
44.4529
45.1261
45.7683
46.3761
46.9483
47.4808
47.9669
48.3988
48.7688
49.0742
49.2872
49.4953
49.6543
49.1365
48.7113
51.1697
55.4796
56.8052
54.5211
50.2893
44.8825
38.569
31.8416
26.1559
22.8809
22.078
23.9811
25.6023
25.6225
24.858
36.745
36.037
35.2297
34.3382
33.4391
32.5078
31.5663
30.6794
29.8819
29.1703
28.5501
28.0261
27.5837
27.2093
26.8942
26.6277
26.4025
26.2149
26.0632
25.9487
25.8758
25.852
25.8888
26.0003
26.1974
26.4849
26.8659
27.3428
27.9157
28.5829
29.3411
30.1857
31.112
32.1154
33.1921
34.335
35.5367
36.7593
37.9436
37.5293
38.2449
39.0337
39.8477
40.625
41.4195
42.2024
42.9529
43.6822
44.381
45.0477
45.688
46.3006
46.8867
47.4464
47.9779
48.4805
48.9558
49.4165
49.8457
50.3478
50.9648
51.1137
51.5078
54.6505
59.0267
60.0696
57.2576
52.2442
45.8887
38.4062
30.1299
22.4423
17.7171
17.1014
20.6931
23.6272
24.2676
23.7325
36.8356
36.1476
35.3643
34.5008
33.632
32.7345
31.8298
30.9802
30.2185
29.5411
28.9527
28.4575
28.0409
27.6898
27.3951
27.1464
26.9365
26.7613
26.6188
26.5097
26.4377
26.4095
26.4353
26.5284
26.6996
26.9541
27.2959
27.7281
28.2522
28.868
29.5733
30.3648
31.2385
32.1897
33.2144
34.3045
35.4508
36.6167
37.7422
37.6062
38.3037
39.074
39.8696
40.6302
41.4088
42.1767
42.9148
43.6336
44.3245
44.9868
45.6278
46.2477
46.8501
47.4386
48.0159
48.5872
49.1611
49.7639
50.3921
51.1509
52.1665
52.9411
54.0921
57.8966
62.5995
63.6449
60.4179
54.6461
47.3539
38.8106
29.1032
19.0697
11.6728
11.4773
17.6586
21.9672
23.1543
22.6951
36.9308
36.2623
35.5023
34.6656
33.8263
32.9613
32.0917
31.2779
30.5502
29.9051
29.3467
28.8785
28.4861
28.1564
27.8807
27.6486
27.4528
27.2893
27.1555
27.0519
26.9814
26.9501
26.967
27.0445
27.1931
27.4183
27.7244
28.1156
28.5941
29.1609
29.815
30.5542
31.3753
32.2739
33.2456
34.2818
35.3723
36.4818
37.5514
37.6872
38.3673
39.1195
39.8974
40.6417
41.405
42.1596
42.8863
43.5956
44.2803
44.9401
45.5834
46.212
46.8316
47.4488
48.0699
48.7052
49.3688
50.0963
50.9003
51.8737
53.2094
54.5207
56.255
60.5785
65.9467
67.5995
64.3688
57.9875
49.8198
40.3195
29.5224
17.6421
5.90932
6.9448
16.0649
21.1609
22.5539
21.8969
37.0297
36.3799
35.6424
34.8319
34.0207
33.187
32.3512
31.5717
30.8764
30.2617
29.7316
29.2887
28.9189
28.6093
28.3513
28.1346
27.9521
27.7994
27.674
27.5758
27.5074
27.4738
27.4835
27.5478
27.6767
27.8758
28.1499
28.5034
28.9394
29.4598
30.0648
30.7529
31.5218
32.3676
33.2858
34.2677
35.302
36.3557
37.3705
37.7715
38.4344
39.1691
39.9298
40.6586
41.4074
42.1488
42.8651
43.5664
44.2459
44.9041
45.5504
46.188
46.8243
47.4684
48.1295
48.8221
49.5643
50.3961
51.347
52.4913
54.0547
55.7909
57.8924
62.3871
68.5175
71.5292
69.1989
62.8155
54.1139
43.9984
32.7899
20.8092
9.69164
10.0726
17.5022
21.8597
22.7812
21.5328
37.1311
36.4997
35.7839
34.9984
34.2147
33.411
32.6077
31.861
31.1963
30.6106
30.1071
29.6878
29.3392
29.0484
28.8069
28.6046
28.4344
28.2921
28.1747
28.0819
28.0158
27.9809
27.9847
28.0377
28.1494
28.3255
28.5707
28.8897
29.2864
29.7631
30.321
30.9596
31.6772
32.4704
33.335
34.2621
35.2405
36.2388
37.2011
37.8578
38.5043
39.2219
39.9658
40.6794
41.414
42.1433
42.8495
43.5432
44.2184
44.8756
45.525
46.171
46.8224
47.4902
48.1858
48.9268
49.7343
50.6491
51.7137
52.9863
54.6839
56.7133
59.0266
63.2714
69.7658
74.511
74.1819
68.9931
60.6598
50.6152
39.7554
28.9457
20.1938
18.6632
22.1114
24.3348
24.0365
21.7999
37.2343
36.6205
35.9258
35.1647
34.4072
33.6326
32.8606
32.1453
31.5098
30.9513
30.4728
30.0758
29.7469
29.4736
29.2475
29.0587
28.9002
28.7675
28.6579
28.5704
28.5069
28.4713
28.4704
28.5138
28.6106
28.7662
28.9854
29.273
29.6332
30.069
30.5822
31.173
31.8405
32.5819
33.393
34.2655
35.1881
36.132
37.0425
37.9457
38.5759
39.2766
40.0041
40.7031
41.4239
42.141
42.8374
43.5243
44.195
44.8511
45.503
46.1561
46.8202
47.5075
48.2311
49.0102
49.8684
50.8444
51.9879
53.3481
55.1011
57.2819
59.7243
63.4661
69.5944
75.6513
77.893
75.1627
68.518
59.5578
49.6572
40.0356
32.2372
28.7473
28.7067
28.3063
26.2981
22.7726
37.3384
36.7417
36.0674
35.3299
34.598
33.8513
33.1094
32.4243
31.8165
31.2837
30.8285
30.4523
30.1418
29.8849
29.6732
29.497
29.3494
29.2259
29.1236
29.0414
28.9807
28.9451
28.9404
28.9758
29.0596
29.197
29.3929
29.6519
29.9785
30.376
30.8468
31.3918
32.0107
32.7011
33.4594
34.2777
35.1453
36.0354
36.8962
38.0339
38.6484
39.3327
40.0441
40.7283
41.4354
42.1409
42.8273
43.5069
44.1729
44.8272
45.4805
46.1387
46.8123
47.5145
48.2589
49.0653
49.9586
50.9748
52.164
53.5725
55.3244
57.5224
60.0184
63.2671
68.455
74.7808
79.1478
79.4008
75.5193
68.6897
60.3542
51.8353
44.363
39.1005
36.1435
33.1917
29.3285
24.4028
37.4426
36.8625
36.208
35.4936
34.7863
34.0669
33.3541
32.6979
32.1164
31.6078
31.1744
30.8176
30.524
30.2823
30.0838
29.9194
29.7819
29.6672
29.5719
29.4951
29.4375
29.4022
29.3947
29.4233
29.4958
29.6172
29.7921
30.0251
30.3207
30.6826
31.1135
31.6148
32.1867
32.8275
33.534
34.299
35.1123
35.9498
36.7615
38.122
38.7208
39.3888
40.0842
40.7541
41.4478
42.1408
42.8171
43.4893
44.1497
44.801
45.4541
46.1147
46.7942
47.5059
48.2636
49.0868
50.0002
51.0365
52.2419
53.6612
55.3748
57.4909
59.9396
62.8212
66.9556
72.5607
77.8421
80.5227
79.6238
75.5333
69.316
62.1485
55.0698
48.7708
43.5064
38.3354
32.754
26.5222
37.5463
36.9824
36.3474
35.6553
34.9722
34.2791
33.5944
32.9658
32.4093
31.9234
31.5105
31.1715
30.8938
30.6658
30.4796
30.326
30.198
30.0914
30.003
29.9313
29.877
29.8427
29.8331
29.8561
29.9188
30.0261
30.1822
30.3915
30.6587
30.9875
31.3809
31.8407
32.3676
32.9603
33.6162
34.3289
35.089
35.8749
36.6395
38.209
38.7926
39.4445
40.124
40.7793
41.4592
42.1403
42.8058
43.4694
44.1231
44.7701
45.4208
46.081
46.7622
47.4778
48.2411
49.0709
49.9902
51.0287
52.2258
53.6231
55.2714
57.2506
59.5516
62.1489
65.443
69.9072
74.8921
78.7491
80.1179
78.6271
74.724
69.2155
62.9168
56.4128
49.8007
43.0638
36.156
28.8879
37.6488
37.101
36.4851
35.815
35.1552
34.4876
33.8301
33.2279
32.6951
32.2306
31.8367
31.5143
31.251
31.0358
30.8607
30.7169
30.5977
30.4987
30.4167
30.3501
30.2992
30.2662
30.2554
30.2738
30.3283
30.4232
30.5625
30.7504
30.9915
31.2896
31.6479
32.0685
32.5523
33.0987
33.7057
34.3674
35.0756
35.8113
36.5293
38.2948
38.863
39.4988
40.1623
40.8032
41.4693
42.1373
42.7916
43.4458
44.0916
44.7326
45.3785
46.0352
46.7138
47.4275
48.189
49.0156
49.9283
50.9529
52.1222
53.4712
55.0329
56.8532
58.9422
61.2649
63.9688
67.3902
71.4508
75.2898
77.7499
78.0773
76.1589
72.341
67.1465
61.0356
54.2035
46.7654
39.1156
31.2274
37.7499
37.218
36.6208
35.9722
35.3352
34.6922
34.0608
33.484
32.9736
32.5292
32.1532
31.8462
31.5961
31.3924
31.2275
31.0926
30.9812
30.8892
30.8131
30.7515
30.7041
30.6728
30.6614
30.6762
30.7238
30.808
30.9323
31.1009
31.3182
31.588
31.9136
32.2972
32.7401
33.2421
33.8017
34.414
35.0718
35.7586
36.4317
38.3787
38.9317
39.5514
40.1988
40.8248
41.4764
42.1314
42.7738
43.4169
44.0537
44.6867
45.3256
45.9756
46.6475
47.3538
48.1065
48.9211
49.816
50.8132
51.939
53.2207
54.6793
56.3351
58.1901
60.2246
62.4894
65.1407
68.2298
71.4097
73.9522
75.1207
74.5022
72.063
68.0227
62.6777
56.2926
48.9906
41.2774
33.2655
37.8491
37.333
36.7543
36.1267
35.5117
34.8925
34.2861
33.7335
33.2445
32.8192
32.4599
32.1671
31.9293
31.7362
31.5803
31.4534
31.3491
31.2633
31.1927
31.1356
31.0917
31.0623
31.0508
31.063
31.1049
31.1798
31.291
31.4423
31.638
31.8819
32.177
32.5259
32.93
33.3897
33.9039
34.4686
35.0777
35.717
36.3459
38.4605
38.9981
39.6015
40.2325
40.8436
41.4806
42.1213
42.7508
43.3821
44.0082
44.6312
45.2605
45.9007
46.5619
47.2559
47.9935
48.7885
49.6564
50.6154
51.6857
52.8872
54.232
55.7237
57.3505
59.0981
60.9945
63.0959
65.4197
67.8277
69.933
71.2042
71.1878
69.6479
66.5733
62.0954
56.4219
49.7648
42.5028
34.8156
37.9463
37.4458
36.8853
36.2781
35.6843
35.0878
34.5055
33.9761
33.5074
33.1002
32.7566
32.4772
32.2508
32.0673
31.9197
31.7999
31.7018
31.6215
31.5558
31.5027
31.4621
31.4347
31.4235
31.4339
31.4711
31.5382
31.6379
31.774
31.9503
32.1704
32.4374
32.7539
33.1216
33.5411
34.0119
34.5308
35.093
35.6862
36.2726
38.5399
39.0621
39.6489
40.2634
40.8589
41.4805
42.1067
42.7225
43.3401
43.954
44.5648
45.1822
45.8096
46.4565
47.1337
47.8509
48.6199
49.4535
50.3661
51.3725
52.4861
53.7118
55.0436
56.4584
57.9392
59.5111
61.1933
62.9623
64.732
66.2937
67.3132
67.4273
66.3568
63.9696
60.2711
55.3831
49.4795
42.9057
35.8122
38.0411
37.5561
37.0134
36.426
35.8525
35.2776
34.7183
34.2112
33.7618
33.3718
33.0431
32.7763
32.5605
32.3861
32.246
32.1326
32.0401
31.9646
31.903
31.8535
31.8156
31.7901
31.7795
31.7886
31.822
31.8825
31.9725
32.0952
32.2542
32.4528
32.694
32.9805
33.3141
33.6957
34.1253
34.6006
35.1176
35.6665
36.2111
38.6168
39.1234
39.6934
40.2908
40.8705
41.4762
42.0866
42.6876
43.2909
43.8907
44.4874
45.0903
45.7022
46.3315
46.988
47.6802
48.4179
49.2116
50.072
51.0093
52.0315
53.1377
54.3163
55.5372
56.7816
58.0706
59.4134
60.7713
62.0676
63.1674
63.8606
63.8902
63.0152
61.0706
57.9915
53.8234
48.6757
42.8173
36.4012
38.1331
37.6635
37.1381
36.5697
36.0156
35.4614
34.9243
34.4384
34.0075
33.6336
33.319
33.0642
32.8585
32.6926
32.5596
32.4521
32.3645
32.2932
32.2351
32.1886
32.153
32.1291
32.119
32.127
32.1573
32.2122
32.2938
32.405
32.5487
32.7282
32.9461
33.2049
33.5068
33.853
34.2438
34.6776
35.1515
35.6575
36.1621
38.6905
39.1816
39.7347
40.3148
40.878
41.467
42.0613
42.6464
43.2337
43.8179
44.3987
44.985
45.5789
46.1877
46.8202
47.4836
48.1862
48.9358
49.7403
50.6059
51.536
52.5262
53.5598
54.6061
55.6449
56.6927
57.7559
58.7953
59.742
60.494
60.9069
60.8019
59.9934
58.3293
55.7189
52.157
47.6934
42.5207
36.7926
38.222
37.7674
37.2588
36.7088
36.1732
35.639
35.1232
34.6577
34.2442
33.8854
33.584
33.3405
33.1444
32.9867
32.8605
32.7585
32.6756
32.6079
32.5529
32.5088
32.475
32.4522
32.4424
32.4494
32.4769
32.527
32.6015
32.7026
32.8331
32.9955
33.1925
33.4263
33.6992
34.0124
34.3668
34.7615
35.1945
35.6597
36.1252
38.761
39.2365
39.7725
40.3349
40.8813
41.4532
42.0301
42.5983
43.1689
43.7358
44.299
44.8669
45.4406
46.0266
46.6325
47.2642
47.9286
48.6315
49.378
50.1712
51.0114
51.8903
52.7899
53.6801
54.5411
55.3872
56.2209
57.0077
57.6894
58.185
58.387
58.1656
57.3815
55.9092
53.6566
50.5914
46.7207
42.1731
37.1005
38.3074
37.8672
37.3751
36.8428
36.3253
35.8102
35.3151
34.8691
34.4719
34.1272
33.8381
33.605
33.4181
33.2682
33.1486
33.0521
32.9735
32.9094
32.8571
32.815
32.7826
32.7605
32.7505
32.7563
32.7811
32.8268
32.895
32.9875
33.1063
33.2538
33.4322
33.6435
33.89
34.1731
34.4938
34.852
35.2464
35.6724
36.101
38.8276
39.2878
39.8066
40.3512
40.8803
41.4343
41.9934
42.5439
43.0963
43.6446
44.189
44.7366
45.2884
45.8497
46.4269
47.025
47.6493
48.304
48.9919
49.7138
50.4672
51.2418
52.0192
52.7708
53.4801
54.1579
54.8043
55.3898
55.8674
56.1722
56.2212
55.9166
55.1523
53.8278
51.8597
49.2046
45.842
41.8555
37.3738
38.3886
37.9627
37.4866
36.9718
36.4718
35.9753
35.5003
35.073
34.691
34.3592
34.0812
33.8579
33.6795
33.537
33.4237
33.3326
33.2585
33.1979
33.1482
33.108
33.0767
33.0549
33.0444
33.0486
33.0705
33.1121
33.1744
33.2591
33.3677
33.502
33.6639
33.8553
34.0781
34.3339
34.6238
34.9482
35.3067
35.696
36.089
38.8901
39.335
39.8367
40.3633
40.875
41.4107
41.951
42.483
43.0165
43.5451
44.0692
44.5952
45.1234
45.6585
46.2057
46.7689
47.3523
47.9585
48.5885
49.2413
49.9126
50.5908
51.2577
51.888
52.4676