/*--------------------------------*- C++ -*----------------------------------*\
| =========                 |                                                 |
| \\      /  F ield         | OpenFOAM: The Open Source CFD Toolbox           |
|  \\    /   O peration     | Version:  v1806                                 |
|   \\  /    A nd           | Web:      www.OpenFOAM.com                      |
|    \\/     M anipulation  |                                                 |
\*---------------------------------------------------------------------------*/
FoamFile
{
    version     2.0;
    format      ascii;
    class       volScalarField;
    location    "50";
    object      nuTilda;
}
// * * * * * * * * * * * * * * * * * * * * * * * * * * * * * * * * * * * * * //

dimensions      [0 2 -1 0 0 0 0];


internalField   nonuniform List<scalar> 
10720
(
0.169824
0.174317
0.176222
0.173672
0.164813
0.144276
0.105055
0.0391201
0.0282037
0.0483768
0.0645064
0.0699687
0.0751315
0.0743383
0.0409788
0.0315877
0.0948478
0.154047
0.191118
0.199724
0.181931
0.148706
0.101803
0.107608
0.101735
0.101747
0.0714174
0.0487353
0.0607572
0.0418701
0.122786
0.168336
0.194221
0.207551
0.208836
0.197685
0.175396
0.144882
0.0856875
0.164697
0.157386
0.149634
0.14091
0.132506
0.123902
0.115231
0.106445
0.0974696
0.0883487
0.0791198
0.0698466
0.0605648
0.0511795
0.0413787
0.0307681
0.0214747
0.019841
0.0268256
0.034089
0.0407645
0.0474152
0.054492
0.0621582
0.0702811
0.0785584
0.0867407
0.094677
0.102266
0.109519
0.116447
0.12309
0.12954
0.135924
0.142487
0.149411
0.157916
0.165651
0.192513
0.105064
0.112813
0.125773
0.143376
0.16322
0.182023
0.192882
0.183746
0.166487
0.189284
0.257386
0.284669
0.268145
0.269399
0.20455
0.185548
0.232689
0.255868
0.276469
0.289899
0.313852
0.338595
0.381787
0.432763
0.370878
0.257824
0.148833
0.113225
0.17137
0.179023
0.180104
0.157528
0.131402
0.123516
0.130312
0.148433
0.181224
0.239925
0.285098
0.0997468
0.0984451
0.097036
0.0975462
0.0974098
0.0971019
0.096357
0.0951126
0.0933528
0.0911856
0.0885847
0.0856657
0.0825946
0.0794759
0.076403
0.0735502
0.0708135
0.067437
0.0639026
0.0608755
0.0583032
0.0560591
0.0541084
0.0524844
0.0512122
0.0503952
0.0500864
0.0503103
0.0510579
0.052299
0.053987
0.0560517
0.0584164
0.0610244
0.0640271
0.0678023
0.0732881
0.0761299
0.089238
0.121207
0.120355
0.119548
0.121081
0.127369
0.141213
0.163843
0.189872
0.209767
0.23757
0.313929
0.415352
0.431228
0.356423
0.319102
0.329468
0.423421
0.559238
0.587627
0.564988
0.555796
0.552918
0.619811
0.754834
0.703364
0.557004
0.297676
0.208052
0.242606
0.194354
0.16017
0.165592
0.169258
0.182709
0.218141
0.264301
0.336003
0.454207
0.564932
0.121744
0.121591
0.121714
0.122219
0.122386
0.122344
0.121982
0.121257
0.120177
0.118777
0.117013
0.114934
0.112617
0.110112
0.107469
0.104783
0.102064
0.0991729
0.0962627
0.0935145
0.0909133
0.0883903
0.085903
0.0833627
0.0807117
0.0780128
0.0752963
0.0725954
0.0699566
0.0674125
0.0650607
0.062938
0.0610762
0.0595364
0.0582675
0.0580204
0.0598447
0.0635478
0.0602175
0.128205
0.127383
0.126534
0.125293
0.124139
0.125084
0.132374
0.150491
0.179983
0.217788
0.286329
0.408677
0.487597
0.400209
0.4276
0.508705
0.753139
0.930543
0.970493
0.917199
0.802173
0.705125
0.758972
1.00429
1.01485
0.798798
0.472567
0.29215
0.248436
0.183987
0.186698
0.211414
0.233386
0.268268
0.319451
0.383933
0.484552
0.656654
0.855757
0.128744
0.129148
0.129528
0.129766
0.129886
0.129887
0.129738
0.129413
0.128909
0.128226
0.127338
0.126252
0.124989
0.123565
0.121998
0.120329
0.118576
0.116669
0.114666
0.112651
0.110651
0.108641
0.106598
0.10445
0.102141
0.0997098
0.0971733
0.0945563
0.0918794
0.0891302
0.0863886
0.0836825
0.0810402
0.0785185
0.0761881
0.0742404
0.0723567
0.0736258
0.0673274
0.132734
0.132306
0.13156
0.130435
0.129188
0.12747
0.126338
0.129723
0.1427
0.171714
0.224707
0.332871
0.468772
0.500958
0.534717
0.746492
1.07555
1.28513
1.33757
1.24308
1.03848
0.828551
0.795639
1.07284
1.15931
0.950599
0.576377
0.320672
0.228259
0.195156
0.22811
0.261652
0.299521
0.353963
0.416023
0.495273
0.619235
0.837696
1.14346
0.132922
0.133157
0.133385
0.133529
0.1336
0.133602
0.133519
0.133341
0.133064
0.13268
0.132174
0.131548
0.130816
0.129986
0.129064
0.128064
0.127
0.125829
0.124568
0.123251
0.121899
0.120501
0.119045
0.117477
0.115752
0.113888
0.111891
0.109777
0.107552
0.10521
0.102805
0.100361
0.0979099
0.0954994
0.0931885
0.0911599
0.0891056
0.0896169
0.0861656
0.134943
0.134632
0.134202
0.133598
0.132803
0.13163
0.129894
0.128109
0.129058
0.139392
0.168277
0.242319
0.383283
0.518526
0.627427
0.944078
1.34164
1.60465
1.69297
1.58546
1.29391
0.935047
0.780089
1.0203
1.18993
1.02537
0.609311
0.303434
0.215692
0.225436
0.268901
0.312113
0.370399
0.43473
0.504763
0.595713
0.738799
0.988244
1.35054
0.135187
0.135355
0.135512
0.135611
0.135659
0.135662
0.135611
0.135501
0.13533
0.135091
0.134774
0.13438
0.133922
0.133406
0.132839
0.13222
0.131557
0.130822
0.130021
0.129169
0.128277
0.12734
0.126349
0.125266
0.124056
0.122725
0.121274
0.119706
0.118022
0.116214
0.114313
0.112339
0.110313
0.10828
0.106289
0.104502
0.102711
0.102816
0.101256
0.136501
0.136335
0.136035
0.135606
0.135074
0.13433
0.133174
0.131603
0.129472
0.12955
0.137439
0.172777
0.277966
0.452564
0.668198
1.06105
1.53309
1.87213
2.02344
1.94116
1.59788
1.09174
0.775275
0.910179
1.13568
1.03168
0.575954
0.271719
0.220386
0.259737
0.310631
0.370332
0.440677
0.509445
0.583726
0.682593
0.840587
1.11115
1.49503
0.136654
0.136758
0.136856
0.136915
0.136941
0.136937
0.1369
0.136824
0.136707
0.136545
0.13633
0.136067
0.135763
0.135427
0.135064
0.134667
0.134236
0.133756
0.133228
0.132662
0.132063
0.131428
0.13075
0.130003
0.129161
0.128227
0.127198
0.126073
0.124848
0.123517
0.122095
0.120593
0.119026
0.117426
0.115833
0.114379
0.112939
0.112796
0.11236
0.137495
0.137349
0.137137
0.136886
0.136626
0.13627
0.135524
0.134446
0.132846
0.130708
0.129737
0.137156
0.191704
0.341428
0.617658
1.086
1.6349
2.06684
2.30253
2.27806
1.92656
1.30333
0.797566
0.789056
1.02169
0.974101
0.498646
0.248828
0.24146
0.295863
0.357239
0.433545
0.509513
0.578417
0.65159
0.751517
0.918654
1.21081
1.59683
0.137604
0.137673
0.137738
0.137773
0.137784
0.137776
0.137745
0.137688
0.137602
0.137484
0.137332
0.137148
0.13694
0.136713
0.136475
0.136214
0.135927
0.135602
0.135245
0.134858
0.134447
0.134006
0.133532
0.133007
0.132413
0.131752
0.131019
0.130212
0.129329
0.128361
0.127319
0.126206
0.125033
0.123822
0.122602
0.121475
0.12038
0.120111
0.120283
0.138198
0.138123
0.138005
0.137802
0.137592
0.137352
0.13702
0.136346
0.135319
0.133759
0.1316
0.128758
0.142974
0.231678
0.485782
1.00132
1.63437
2.16755
2.50189
2.56046
2.23961
1.54342
0.863121
0.689382
0.877384
0.858235
0.411758
0.242396
0.271331
0.336764
0.413249
0.501743
0.579309
0.643893
0.709103
0.800998
0.96716
1.27114
1.6668
0.138269
0.13831
0.138348
0.138364
0.138361
0.138348
0.13832
0.138275
0.138209
0.138121
0.13801
0.13788
0.137734
0.137578
0.137419
0.137247
0.137052
0.136828
0.136582
0.136314
0.136025
0.135714
0.135377
0.135002
0.134576
0.1341
0.13357
0.132986
0.132344
0.131639
0.130875
0.130056
0.129188
0.128287
0.127374
0.126524
0.125721
0.125417
0.125877
0.138693
0.138641
0.138555
0.138419
0.138282
0.138103
0.137893
0.13759
0.136961
0.135929
0.134566
0.131389
0.128211
0.158542
0.325514
0.803125
1.50667
2.15251
2.59336
2.75232
2.49582
1.77709
0.971602
0.627381
0.730753
0.712601
0.341396
0.251379
0.307039
0.385223
0.479512
0.577741
0.655694
0.7108
0.760565
0.835158
0.986396
1.28609
1.71109
0.138737
0.138757
0.138774
0.138776
0.138765
0.138747
0.138722
0.138685
0.138633
0.138566
0.138486
0.138393
0.138291
0.138183
0.138079
0.137964
0.137831
0.137677
0.137507
0.13732
0.137116
0.136894
0.136652
0.136381
0.136072
0.135725
0.135338
0.13491
0.134438
0.13392
0.133357
0.132753
0.132113
0.131446
0.130771
0.13014
0.129567
0.129284
0.129857
0.139048
0.139029
0.138989
0.138892
0.138787
0.138652
0.138484
0.138302
0.138013
0.137352
0.136454
0.13498
0.130102
0.129228
0.199093
0.541822
1.23069
1.98472
2.54753
2.81424
2.65078
1.96257
1.10044
0.610249
0.608293
0.573113
0.299061
0.273228
0.349104
0.443747
0.554301
0.656312
0.729567
0.777236
0.813404
0.861075
0.985619
1.26918
1.73155
0.13907
0.139074
0.139076
0.139069
0.139052
0.139034
0.139011
0.13898
0.138938
0.138889
0.138831
0.138766
0.138694
0.138621
0.138556
0.138479
0.13839
0.138285
0.138168
0.138038
0.137894
0.137736
0.137563
0.137367
0.137142
0.136889
0.136605
0.13629
0.135942
0.135559
0.135144
0.134698
0.134226
0.133736
0.133241
0.132779
0.132381
0.132146
0.132753
0.139299
0.1393
0.139285
0.139215
0.139139
0.139041
0.138917
0.138774
0.138611
0.138303
0.13766
0.136926
0.134683
0.127597
0.13582
0.310215
0.849631
1.63012
2.31759
2.70807
2.6586
2.05379
1.21619
0.632403
0.525852
0.466402
0.283769
0.305424
0.397472
0.508506
0.628009
0.727267
0.792136
0.828901
0.852131
0.884867
0.976364
1.23053
1.72708
0.139305
0.139298
0.139292
0.139282
0.139264
0.139247
0.139228
0.139202
0.139168
0.139131
0.139092
0.139046
0.138997
0.13895
0.13891
0.138861
0.138802
0.138733
0.138654
0.138564
0.138465
0.138355
0.138232
0.138093
0.137932
0.137749
0.137542
0.137312
0.137056
0.136776
0.136471
0.136145
0.135801
0.135444
0.135087
0.134755
0.134491
0.134313
0.134922
0.139474
0.139492
0.139492
0.139446
0.139399
0.13933
0.139239
0.139129
0.138998
0.13884
0.138499
0.137953
0.137267
0.133509
0.122569
0.173246
0.486695
1.13526
1.87039
2.38718
2.48756
2.01648
1.27738
0.674822
0.482162
0.39892
0.288671
0.344113
0.450671
0.574835
0.697696
0.791431
0.846792
0.871689
0.88032
0.895715
0.965517
1.17969
1.69574
0.139469
0.139457
0.139449
0.13944
0.139427
0.139414
0.139399
0.139377
0.139349
0.139322
0.139296
0.139266
0.139233
0.139205
0.139181
0.139151
0.139114
0.13907
0.139019
0.138959
0.138893
0.138818
0.138735
0.13864
0.138528
0.1384
0.138254
0.13809
0.137907
0.137706
0.137488
0.137255
0.137009
0.136757
0.136506
0.136278
0.136116
0.135991
0.136583
0.139594
0.139622
0.13963
0.139607
0.139584
0.139541
0.139473
0.139394
0.139289
0.139167
0.138995
0.138638
0.138258
0.13744
0.129141
0.125827
0.249397
0.65533
1.27932
1.84636
2.09339
1.83105
1.25381
0.714877
0.466622
0.36384
0.306654
0.386936
0.507034
0.640915
0.764333
0.852514
0.900012
0.914682
0.908103
0.901664
0.944875
1.13193
1.63811
0.139584
0.139572
0.139567
0.139564
0.139558
0.139553
0.139543
0.139524
0.139499
0.139479
0.139465
0.139445
0.139423
0.139409
0.139396
0.139378
0.139357
0.13933
0.139299
0.139261
0.13922
0.139173
0.139121
0.139061
0.138989
0.138904
0.138807
0.138696
0.138571
0.138434
0.138284
0.138125
0.137957
0.137788
0.137621
0.137474
0.13739
0.137306
0.13786
0.139675
0.139708
0.139722
0.139714
0.139707
0.139683
0.139633
0.139577
0.139503
0.139397
0.139281
0.139081
0.138722
0.138656
0.135998
0.124384
0.14771
0.330755
0.731792
1.21082
1.52556
1.49514
1.13914
0.725695
0.469009
0.350976
0.332285
0.432496
0.565316
0.706713
0.830442
0.915749
0.959936
0.968414
0.94731
0.914726
0.923693
1.07948
1.55729
0.139666
0.139659
0.13966
0.139666
0.13967
0.139673
0.139669
0.139652
0.139629
0.139614
0.139608
0.139596
0.139584
0.139577
0.13957
0.139561
0.139551
0.139536
0.139519
0.139497
0.139474
0.139449
0.139422
0.139389
0.139349
0.1393
0.139241
0.139173
0.139094
0.139007
0.138912
0.13881
0.138705
0.138601
0.1385
0.138416
0.138386
0.138328
0.138823
0.139733
0.139765
0.139782
0.139781
0.139782
0.139775
0.139746
0.139708
0.139655
0.139569
0.139461
0.139339
0.139078
0.13892
0.138728
0.132763
0.125987
0.179163
0.371642
0.679395
0.955332
1.05097
0.936031
0.690262
0.478892
0.351674
0.361985
0.479936
0.624961
0.773387
0.899723
0.98783
1.03617
1.04441
1.01022
0.946832
0.910141
1.01616
1.45843
0.139728
0.139728
0.139737
0.139754
0.139767
0.13978
0.139781
0.139767
0.139745
0.139734
0.139733
0.139727
0.139722
0.13972
0.139717
0.139714
0.139709
0.139703
0.139695
0.139685
0.139676
0.139668
0.13966
0.139649
0.139633
0.139612
0.139583
0.139547
0.139504
0.139455
0.1394
0.139344
0.139286
0.139232
0.139181
0.139143
0.139149
0.139104
0.139527
0.139777
0.139805
0.139822
0.139822
0.139828
0.139835
0.139826
0.139806
0.139768
0.139699
0.139591
0.139479
0.139308
0.139054
0.139198
0.137756
0.130466
0.134565
0.200987
0.353927
0.537587
0.661654
0.681378
0.60744
0.481345
0.360484
0.393819
0.528759
0.686106
0.843057
0.977206
1.07708
1.13939
1.15405
1.10818
1.00966
0.917299
0.957831
1.34733
0.139779
0.139786
0.139804
0.13983
0.139853
0.139875
0.139882
0.13987
0.139851
0.139842
0.139846
0.139845
0.139844
0.139844
0.139844
0.139844
0.139843
0.139842
0.139841
0.139839
0.13984
0.139844
0.13985
0.139856
0.139858
0.139857
0.13985
0.139838
0.13982
0.139798
0.139774
0.139751
0.13973
0.139714
0.139701
0.139696
0.139723
0.139682
0.140032
0.139814
0.139836
0.13985
0.13985
0.139858
0.139871
0.139874
0.139869
0.139845
0.139786
0.139686
0.139573
0.139438
0.139221
0.139202
0.139223
0.136315
0.131179
0.144502
0.202897
0.300755
0.402298
0.468206
0.479895
0.469817
0.373598
0.426848
0.578748
0.749557
0.919062
1.06981
1.19355
1.2806
1.30736
1.25024
1.11259
0.956045
0.915147
1.23001
0.139823
0.139837
0.139864
0.139897
0.139928
0.139957
0.13997
0.139963
0.139947
0.139941
0.139948
0.13995
0.139953
0.139955
0.139956
0.139958
0.139959
0.139961
0.139964
0.139967
0.139975
0.139988
0.140005
0.140021
0.140036
0.140048
0.140056
0.140061
0.140061
0.140059
0.140059
0.140062
0.14007
0.140084
0.140098
0.140116
0.140154
0.140112
0.140395
0.139848
0.139863
0.139873
0.139871
0.139878
0.139892
0.139899
0.139903
0.139889
0.139842
0.139769
0.139673
0.139561
0.139416
0.139314
0.139428
0.13886
0.135587
0.134481
0.149864
0.191833
0.257496
0.322514
0.364906
0.424424
0.390259
0.46016
0.629539
0.816764
1.00651
1.18686
1.34878
1.47028
1.51226
1.44242
1.26168
1.03506
0.897716
1.10738
0.139864
0.139885
0.139917
0.139955
0.139992
0.140027
0.140047
0.140045
0.140034
0.140032
0.140041
0.140046
0.140051
0.140055
0.140057
0.14006
0.140062
0.140066
0.140071
0.140078
0.14009
0.140109
0.140131
0.140155
0.140177
0.140197
0.140217
0.140233
0.140247
0.140261
0.140279
0.140304
0.140336
0.140372
0.140404
0.140436
0.140475
0.140429
0.140655
0.139882
0.13989
0.139895
0.13989
0.139894
0.139906
0.139917
0.139928
0.139923
0.139891
0.139839
0.139762
0.139679
0.139606
0.139515
0.139504
0.139501
0.13852
0.136437
0.137492
0.151026
0.186686
0.232859
0.280851
0.381424
0.405142
0.491643
0.680084
0.890322
1.11342
1.34069
1.5556
1.71852
1.77546
1.68862
1.45933
1.15872
0.91654
0.992147
0.139903
0.139928
0.139964
0.140004
0.140046
0.140085
0.140111
0.140116
0.140111
0.140115
0.140126
0.140134
0.140141
0.140146
0.14015
0.140153
0.140156
0.14016
0.140166
0.140175
0.14019
0.140211
0.140237
0.140264
0.14029
0.140317
0.140344
0.14037
0.140394
0.140421
0.140453
0.140495
0.140543
0.140592
0.140634
0.140673
0.140708
0.140659
0.140841
0.139917
0.13992
0.139918
0.139909
0.139911
0.139923
0.139936
0.139949
0.139957
0.139941
0.139903
0.13984
0.139787
0.139744
0.139693
0.13965
0.139626
0.13954
0.138858
0.137286
0.139715
0.156283
0.181928
0.22435
0.344091
0.412751
0.517094
0.729703
0.976004
1.25235
1.54704
1.82814
2.03602
2.10455
1.99329
1.70681
1.3278
0.978415
0.901718
0.139941
0.139969
0.140006
0.140047
0.14009
0.140134
0.140165
0.140177
0.140181
0.140191
0.140205
0.140215
0.140224
0.14023
0.140235
0.140238
0.140242
0.140246
0.140252
0.140262
0.140278
0.1403
0.140327
0.140355
0.140384
0.140416
0.140448
0.14048
0.140512
0.140548
0.140592
0.140644
0.1407
0.140755
0.1408
0.14084
0.14087
0.140828
0.140975
0.139952
0.139951
0.139946
0.139933
0.139933
0.139945
0.13996
0.139971
0.139985
0.139987
0.139967
0.139916
0.139869
0.139841
0.139818
0.139796
0.139727
0.139789
0.139888
0.138834
0.138678
0.145495
0.155001
0.187517
0.310436
0.408553
0.53438
0.783613
1.08781
1.44311
1.82568
2.18251
2.43551
2.50953
2.36299
2.00624
1.54132
1.08589
0.850655
0.139978
0.140007
0.140043
0.140084
0.140127
0.140173
0.140211
0.140231
0.140242
0.14026
0.140277
0.140291
0.140302
0.14031
0.140315
0.140319
0.140322
0.140326
0.140332
0.140342
0.140358
0.14038
0.140407
0.140435
0.140465
0.140498
0.140534
0.140571
0.140608
0.140651
0.140701
0.140759
0.140817
0.14087
0.140913
0.140953
0.140979
0.140949
0.141068
0.139989
0.139986
0.139977
0.139962
0.13996
0.139972
0.139987
0.139997
0.140008
0.140024
0.140025
0.139995
0.139943
0.139916
0.139905
0.139901
0.13984
0.1399
0.140097
0.139632
0.140092
0.143204
0.141516
0.162806
0.279036
0.395947
0.553739
0.862564
1.25391
1.71429
2.20015
2.63686
2.93188
3.0031
2.80721
2.36204
1.7982
1.23758
0.849409
0.140014
0.140041
0.140077
0.140115
0.140158
0.140206
0.140249
0.140277
0.140298
0.140323
0.140345
0.140362
0.140375
0.140385
0.140391
0.140395
0.140398
0.140402
0.140408
0.140417
0.140432
0.140454
0.140479
0.140506
0.140535
0.14057
0.140608
0.140648
0.140689
0.140736
0.140789
0.140846
0.1409
0.140948
0.140989
0.141027
0.141052
0.141038
0.141133
0.140025
0.140021
0.140012
0.139995
0.139993
0.140004
0.140017
0.140027
0.140035
0.140052
0.140072
0.140069
0.140033
0.139994
0.13998
0.139977
0.139933
0.140026
0.140069
0.139677
0.141487
0.144025
0.134265
0.144671
0.255257
0.394788
0.606798
1.00848
1.5168
2.10063
2.6956
3.20991
3.54087
3.59912
3.33735
2.78109
2.09883
1.42915
0.903527
0.140047
0.140073
0.140106
0.140142
0.140184
0.140234
0.140281
0.140317
0.140348
0.140381
0.140409
0.140429
0.140445
0.140456
0.140464
0.140468
0.140471
0.140475
0.14048
0.140489
0.140503
0.140522
0.140545
0.140571
0.140599
0.140634
0.140673
0.140715
0.140759
0.140807
0.140859
0.14091
0.140958
0.141002
0.14104
0.141076
0.141102
0.141106
0.141177
0.140061
0.140055
0.140048
0.14003
0.140028
0.140037
0.140049
0.140058
0.140065
0.140078
0.140103
0.140125
0.140118
0.140082
0.140064
0.14005
0.140004
0.140159
0.140047
0.139379
0.142449
0.145533
0.128499
0.131012
0.252345
0.440835
0.743473
1.27461
1.9215
2.63383
3.33299
3.91695
4.27578
4.31021
3.96494
3.27184
2.44597
1.65557
1.0098
0.14008
0.140103
0.140132
0.140166
0.140206
0.140256
0.140308
0.140353
0.140393
0.140435
0.140468
0.140493
0.140512
0.140526
0.140534
0.140539
0.140542
0.140545
0.140549
0.140557
0.14057
0.140588
0.140609
0.140631
0.140659
0.140693
0.140733
0.140776
0.14082
0.140867
0.140914
0.140958
0.140999
0.141039
0.141074
0.141109
0.141134
0.141152
0.141205
0.140096
0.14009
0.140082
0.140064
0.140062
0.14007
0.140081
0.140089
0.140095
0.140106
0.140126
0.140155
0.14018
0.140171
0.140156
0.140137
0.140071
0.140285
0.140082
0.139014
0.143139
0.146726
0.12159
0.122766
0.286707
0.570816
1.01054
1.70215
2.49699
3.33094
4.1219
4.76475
5.14323
5.14425
4.69864
3.84226
2.84414
1.91351
1.15785
0.14011
0.14013
0.140157
0.140187
0.140224
0.140274
0.14033
0.140383
0.140435
0.140485
0.140524
0.140553
0.140576
0.140592
0.140602
0.140607
0.140611
0.140613
0.140618
0.140625
0.140636
0.140651
0.140669
0.140689
0.140715
0.140749
0.14079
0.140833
0.140876
0.140917
0.140956
0.140993
0.14103
0.141065
0.141097
0.14113
0.141154
0.141178
0.141219
0.14013
0.140126
0.140116
0.140097
0.140094
0.140101
0.14011
0.140118
0.140123
0.140131
0.140148
0.140174
0.140208
0.140228
0.140245
0.14023
0.140146
0.140408
0.140172
0.13869
0.143748
0.147351
0.112609
0.121937
0.36887
0.804901
1.42969
2.29933
3.24246
4.18609
5.05499
5.74679
6.13929
6.10102
5.54163
4.49693
3.29776
2.20267
1.33494
0.140139
0.140156
0.140179
0.140206
0.140239
0.140288
0.140347
0.14041
0.140472
0.140529
0.140575
0.14061
0.140636
0.140654
0.140666
0.140673
0.140677
0.140681
0.140685
0.140691
0.140701
0.140714
0.140729
0.140746
0.14077
0.140805
0.140845
0.140886
0.140924
0.140957
0.140989
0.14102
0.141052
0.141083
0.141113
0.141143
0.141166
0.141193
0.141224
0.140162
0.140161
0.140152
0.14013
0.140124
0.140129
0.140136
0.140142
0.140146
0.140153
0.140167
0.14019
0.140223
0.140254
0.140293
0.140318
0.140227
0.140519
0.140316
0.138416
0.144363
0.147685
0.101744
0.12864
0.497472
1.13783
1.98245
3.03657
4.12595
5.16962
6.10643
6.84112
7.24642
7.16908
6.48847
5.23466
3.80828
2.52424
1.53198
0.140168
0.140181
0.140199
0.140223
0.140252
0.140298
0.14036
0.140431
0.140505
0.140571
0.140624
0.140663
0.140693
0.140714
0.140729
0.140737
0.140743
0.140747
0.140751
0.140757
0.140765
0.140775
0.140787
0.140803
0.140826
0.14086
0.140898
0.140933
0.140963
0.140989
0.141015
0.141041
0.141068
0.141096
0.141122
0.14115
0.141171
0.141198
0.141222
0.140192
0.140192
0.140184
0.140162
0.140153
0.140154
0.140158
0.140163
0.140166
0.140171
0.140183
0.140202
0.140233
0.140267
0.140313
0.140372
0.140286
0.140616
0.140531
0.138158
0.144927
0.14851
0.0898636
0.137316
0.654094
1.54346
2.63111
3.86374
5.09277
6.23295
7.23367
8.01027
8.43247
8.32364
7.52254
6.04546
4.37101
2.87772
1.74525
0.140195
0.140205
0.140218
0.140237
0.140261
0.140305
0.140369
0.14045
0.140535
0.140609
0.140667
0.140711
0.140744
0.140769
0.140787
0.140799
0.140806
0.140811
0.140816
0.140821
0.140827
0.140836
0.140845
0.140859
0.140882
0.140914
0.140945
0.140972
0.140994
0.141016
0.141037
0.141058
0.141081
0.141105
0.141128
0.141153
0.141172
0.141196
0.141215
0.140222
0.140222
0.140214
0.140193
0.140178
0.140174
0.140177
0.140179
0.140181
0.140185
0.140195
0.140212
0.14024
0.140275
0.140318
0.140401
0.140327
0.140642
0.140823
0.137958
0.145116
0.150982
0.0786597
0.135716
0.802325
1.97209
3.32455
4.72333
6.08002
7.31709
8.38247
9.20348
9.65046
9.52496
8.61369
6.90876
4.97415
3.25802
1.97333
0.140221
0.140228
0.140235
0.140248
0.140267
0.140308
0.140374
0.140464
0.14056
0.140641
0.140705
0.140753
0.140789
0.140818
0.14084
0.140855
0.140866
0.140873
0.140879
0.140883
0.140889
0.140895
0.140903
0.140916
0.140937
0.140961
0.140984
0.141004
0.141021
0.141038
0.141055
0.141073
0.141092
0.141112
0.141131
0.141152
0.141168
0.14119
0.141202
0.140248
0.140248
0.140241
0.140222
0.1402
0.140193
0.140193
0.140193
0.140194
0.140196
0.140204
0.14022
0.140245
0.140278
0.140317
0.140409
0.140364
0.140593
0.14113
0.137917
0.144294
0.155715
0.072419
0.109706
0.88775
2.34631
3.99102
5.57449
7.03999
8.36311
9.49257
10.3591
10.8385
10.717
9.71415
7.78912
5.59513
3.65359
2.21309
0.140246
0.140249
0.140249
0.140257
0.14027
0.140307
0.140375
0.140475
0.140582
0.140667
0.140732
0.140783
0.140822
0.140853
0.140877
0.140896
0.14091
0.140921
0.14093
0.140937
0.140944
0.140951
0.140958
0.140969
0.140983
0.141
0.141016
0.141032
0.141046
0.141059
0.141072
0.141086
0.141101
0.141117
0.141133
0.14115
0.141162
0.14118
0.141187
0.140272
0.140271
0.140265
0.140248
0.140224
0.140213
0.140209
0.140207
0.140206
0.140207
0.140213
0.140226
0.140247
0.14028
0.140314
0.140402
0.140403
0.140502
0.141344
0.138287
0.142122
0.161029
0.0783912
0.0564605
0.850028
2.54926
4.51235
6.33017
7.92805
9.32231
10.5016
11.406
11.9168
11.8207
10.7502
8.62971
6.19733
4.0443
2.45583
0.140267
0.140267
0.140262
0.140264
0.140271
0.140303
0.140373
0.140484
0.140599
0.140686
0.140755
0.140809
0.140852
0.140886
0.140912
0.140931
0.140947
0.140959
0.140969
0.140977
0.140985
0.140992
0.141
0.141009
0.14102
0.141033
0.141046
0.141058
0.141069
0.141079
0.141088
0.141098
0.141109
0.141121
0.141132
0.141145
0.141153
0.141168
0.141169
0.140289
0.140287
0.140285
0.140271
0.140248
0.14023
0.140222
0.140219
0.140217
0.140217
0.140221
0.140231
0.14025
0.140279
0.140311
0.140385
0.140434
0.14042
0.141358
0.139147
0.139305
0.163176
0.100649
0.0912968
0.6598
2.45962
4.72216
6.83289
8.62378
10.1191
11.3407
12.2595
12.7816
12.7175
11.6117
9.3482
6.7285
4.40053
2.68574
0.140283
0.140279
0.140271
0.140268
0.140271
0.140298
0.140368
0.140491
0.14061
0.1407
0.140774
0.140833
0.140879
0.140916
0.140944
0.140966
0.140982
0.140995
0.141006
0.141015
0.141022
0.141029
0.141036
0.141044
0.141053
0.141063
0.141073
0.141083
0.141091
0.141097
0.141103
0.141109
0.141116
0.141124
0.141131
0.141139
0.141143
0.141153
0.141148
0.140299
0.140301
0.1403
0.140289
0.140266
0.140243
0.140232
0.140228
0.140226
0.140225
0.140228
0.140236
0.140252
0.140277
0.140307
0.140364
0.140445
0.140385
0.141166
0.140207
0.137288
0.159573
0.125561
0.0157917
0.387685
2.02442
4.45631
6.87172
8.92371
10.5788
11.8709
12.8009
13.3118
13.2538
12.1396
9.83189
7.11842
4.68355
2.8822
0.140292
0.140286
0.140278
0.140271
0.140268
0.140291
0.140362
0.140496
0.140618
0.140713
0.140792
0.140855
0.140905
0.140944
0.140975
0.140998
0.141016
0.14103
0.141041
0.14105
0.141057
0.141064
0.141071
0.141077
0.141084
0.141092
0.1411
0.141106
0.141111
0.141114
0.141117
0.141119
0.141122
0.141125
0.141128
0.141131
0.141131
0.141136
0.141126
0.140305
0.140309
0.140311
0.1403
0.14028
0.140254
0.140241
0.140236
0.140233
0.140231
0.140233
0.14024
0.140253
0.140274
0.140302
0.140344
0.140434
0.140395
0.140879
0.141007
0.137006
0.151831
0.152956
0.0391379
0.13072
1.34981
3.66553
6.2693
8.5971
10.4733
11.8908
12.8621
13.367
13.3159
12.2594
10.0152
7.31781
4.85983
3.02382
0.140297
0.140289
0.14028
0.140271
0.140263
0.140284
0.140354
0.140499
0.140624
0.140725
0.140809
0.140877
0.14093
0.140972
0.141004
0.141029
0.141048
0.141063
0.141074
0.141083
0.141091
0.141097
0.141103
0.141108
0.141113
0.141119
0.141124
0.141128
0.14113
0.14113
0.141129
0.141127
0.141126
0.141125
0.141123
0.141122
0.141117
0.141118
0.141102
0.140307
0.140311
0.140313
0.140307
0.140288
0.140264
0.140248
0.140241
0.140237
0.140235
0.140236
0.140242
0.140253
0.140271
0.140296
0.140328
0.140404
0.140415
0.140633
0.141295
0.138131
0.144242
0.162137
0.0777901
0.00333705
0.67424
2.52061
5.02552
7.50846
9.60496
11.1981
12.2685
12.8105
12.7955
11.8833
9.81879
7.26292
4.88818
3.08995
0.140298
0.140289
0.140279
0.140269
0.140259
0.140276
0.140345
0.1405
0.140629
0.140737
0.140826
0.140898
0.140954
0.140998
0.141032
0.141058
0.141079
0.141094
0.141106
0.141115
0.141122
0.141128
0.141133
0.141136
0.14114
0.141144
0.141147
0.141148
0.141147
0.141144
0.141139
0.141134
0.141129
0.141123
0.141117
0.141111
0.141102
0.141097
0.141077
0.140305
0.140309
0.14031
0.140307
0.140289
0.140267
0.140248
0.14024
0.140237
0.140235
0.140236
0.140241
0.14025
0.140266
0.140287
0.140313
0.14037
0.140419
0.140489
0.141164
0.139584
0.1399
0.157507
0.128183
0.0114913
0.226763
1.38158
3.41652
5.76968
7.94988
9.6957
10.9043
11.5444
11.6144
10.938
9.17323
6.89235
4.72301
3.05185
0.140296
0.140287
0.140276
0.140266
0.140255
0.140268
0.140337
0.1405
0.140635
0.140748
0.140843
0.140919
0.140978
0.141024
0.141059
0.141087
0.141108
0.141123
0.141136
0.141145
0.141151
0.141156
0.14116
0.141163
0.141164
0.141166
0.141166
0.141165
0.141161
0.141155
0.141147
0.141138
0.141129
0.14112
0.141109
0.141099
0.141085
0.141076
0.141051
0.140299
0.140303
0.140303
0.140299
0.140283
0.140263
0.140243
0.140235
0.140232
0.140231
0.140232
0.140236
0.140245
0.140258
0.140276
0.140299
0.140338
0.140398
0.140426
0.140876
0.140539
0.138876
0.148909
0.150358
0.073463
0.0578199
0.578874
1.90299
3.78472
5.77756
7.52666
8.82888
9.59092
9.78989
9.38256
8.046
6.1773
4.33409
2.88228
0.140291
0.140282
0.140272
0.140262
0.140252
0.140261
0.140329
0.1405
0.140641
0.140761
0.140861
0.14094
0.141001
0.141049
0.141085
0.141113
0.141135
0.141151
0.141163
0.141172
0.141178
0.141182
0.141185
0.141186
0.141186
0.141185
0.141183
0.141179
0.141173
0.141163
0.141152
0.14114
0.141127
0.141114
0.141099
0.141085
0.141067
0.141053
0.141025
0.140291
0.140293
0.140292
0.140286
0.140271
0.140255
0.140236
0.140228
0.140224
0.140223
0.140224
0.140228
0.140235
0.140247
0.140263
0.140283
0.140311
0.140363
0.140396
0.140626
0.140844
0.139477
0.142885
0.151909
0.122811
0.0579983
0.19453
0.850023
2.06711
3.59713
5.11469
6.36327
7.18685
7.51604
7.33366
6.5004
5.15089
3.73151
2.57463
0.140283
0.140276
0.140267
0.140258
0.140249
0.140256
0.140321
0.1405
0.140648
0.140774
0.140879
0.140961
0.141025
0.141074
0.141111
0.141139
0.14116
0.141176
0.141188
0.141196
0.141202
0.141205
0.141206
0.141206
0.141203
0.1412
0.141196
0.14119
0.14118
0.141168
0.141154
0.141138
0.141122
0.141105
0.141087
0.141068
0.141046
0.141028
0.140997
0.140279
0.14028
0.140277
0.140269
0.140257
0.140241
0.140224
0.140215
0.140212
0.140211
0.140211
0.140215
0.140221
0.140232
0.140246
0.140263
0.140285
0.140324
0.140365
0.140472
0.140767
0.140213
0.140516
0.146716
0.143071
0.102042
0.0934824
0.320187
0.93427
1.89015
2.99054
4.00974
4.77021
5.16629
5.15993
4.7479
3.92828
2.97614
2.15526
0.140274
0.140269
0.140262
0.140254
0.140246
0.140251
0.140315
0.140501
0.140656
0.140789
0.140898
0.140983
0.141048
0.141098
0.141135
0.141163
0.141184
0.141199
0.14121
0.141218
0.141222
0.141224
0.141224
0.141221
0.141217
0.141212
0.141205
0.141196
0.141184
0.141169
0.141151
0.141133
0.141113
0.141093
0.141071
0.141049
0.141024
0.141002
0.140968
0.140265
0.140264
0.140258
0.140249
0.140238
0.140221
0.140205
0.140197
0.140194
0.140193
0.140194
0.140197
0.140203
0.140212
0.140225
0.14024
0.140258
0.140286
0.140325
0.140384
0.140588
0.140546
0.140181
0.142592
0.145646
0.131569
0.103117
0.14264
0.373225
0.847539
1.50106
2.19478
2.78257
3.15486
3.25689
3.09001
2.70602
2.17547
1.6767
0.140262
0.14026
0.140256
0.14025
0.140243
0.140248
0.140311
0.140502
0.140665
0.140805
0.140919
0.141006
0.141072
0.141122
0.141159
0.141186
0.141206
0.14122
0.14123
0.141236
0.141239
0.14124
0.141237
0.141233
0.141226
0.141219
0.141209
0.141197
0.141183
0.141165
0.141145
0.141124
0.141101
0.141078
0.141053
0.141028
0.140999
0.140974
0.140938
0.140249
0.140245
0.140237
0.140227
0.140215
0.140198
0.140184
0.140176
0.140172
0.140171
0.140173
0.140176
0.140182
0.14019
0.140201
0.140214
0.140228
0.140248
0.140278
0.14032
0.140435
0.140555
0.140359
0.140875
0.14327
0.141511
0.126568
0.117362
0.173786
0.355216
0.668706
1.05936
1.43908
1.72389
1.85979
1.83436
1.67876
1.44943
1.20574
0.140249
0.14025
0.140249
0.140246
0.140241
0.140247
0.140307
0.140504
0.140676
0.140822
0.14094
0.14103
0.141096
0.141145
0.141181
0.141207
0.141225
0.141238
0.141246
0.14125
0.141252
0.141251
0.141246
0.14124
0.141231
0.14122
0.141208
0.141194
0.141176
0.141156
0.141134
0.14111
0.141085
0.141059
0.141031
0.141003
0.140972
0.140944
0.140906
0.140231
0.140224
0.140214
0.140202
0.14019
0.140173
0.14016
0.140152
0.140149
0.140149
0.140151
0.140154
0.140159
0.140168
0.140177
0.140186
0.140196
0.140209
0.140229
0.140258
0.140321
0.140437
0.140438
0.140455
0.141377
0.142352
0.138199
0.128318