/*--------------------------------*- C++ -*----------------------------------*\
| =========                 |                                                 |
| \\      /  F ield         | OpenFOAM: The Open Source CFD Toolbox           |
|  \\    /   O peration     | Version:  v1806                                 |
|   \\  /    A nd           | Web:      www.OpenFOAM.com                      |
|    \\/     M anipulation  |                                                 |
\*---------------------------------------------------------------------------*/
FoamFile
{
    version     2.0;
    format      ascii;
    class       volScalarField;
    location    "50";
    object      p;
}
// * * * * * * * * * * * * * * * * * * * * * * * * * * * * * * * * * * * * * //

dimensions      [0 2 -2 0 0 0 0];


internalField   nonuniform List<scalar> 
10720
(
-920.295
-866.183
-806.197
-716.557
-614.644
-550.12
-535.28
-552.543
-573.483
-583.154
-584.71
-561.217
-533.755
-542.001
-556.323
-560.014
-625.179
-870.705
-1191.05
-1318.44
-1109.49
-690.816
-364.525
-301.808
-406.791
-461.055
-426.403
-389.043
-387.265
-487.55
-760.88
-1102.1
-1414.03
-1612.29
-1664.99
-1556.62
-1261.75
-853.367
-969.626
-930.725
-947.756
-886.468
-777.482
-619.781
-421.983
-196.984
27.6248
228.681
400.129
536.927
639.606
713.434
763.889
796.073
814.295
821.293
820.468
812.713
798.071
778.497
754.418
725.777
692.674
656.248
617.748
577.293
535.102
491.447
446.876
400.679
353.027
303.234
250.164
191.925
125.383
45.6858
-63.5259
-219.752
-449.22
-447.473
-430.832
-406.605
-402.031
-442.403
-511.479
-551.579
-552.976
-572.213
-591.957
-584.694
-555.11
-550.832
-557.434
-553.349
-624.946
-874.738
-1178.73
-1299.55
-1110.89
-714.821
-391.53
-322.058
-418.44
-465.028
-425.974
-387.674
-384.832
-487.09
-761.856
-1100.94
-1411.25
-1608.81
-1661.71
-1554.81
-1264.66
-863.514
-972.821
-429.882
-397.556
-350.324
-279.572
-188.229
-73.3805
60.9597
203.32
340.965
465.57
571.277
655.533
719.198
764.573
794.593
812.129
819.411
818.836
811.256
797.167
778.1
754.505
726.414
693.972
658.139
620.005
579.8
537.758
494.171
449.575
403.301
355.521
305.578
252.361
194.014
127.436
47.8313
-61.1306
-212.936
-397.387
-412.51
-421.935
-428.264
-432.067
-443.895
-471.665
-503.535
-531.72
-566.934
-589.719
-590.433
-554.84
-524.804
-533.935
-560.475
-678.73
-924.503
-1194.88
-1302.1
-1127.95
-752.72
-432.683
-349.498
-433.225
-470.728
-425.57
-386.307
-384.284
-496.071
-770.867
-1104
-1411.25
-1607.68
-1660.13
-1553.39
-1266.88
-875.302
-978.198
-377.351
-337.574
-275.809
-192.651
-92.5378
22.5225
146.722
271.718
390.465
497.629
589.313
663.728
721.23
763.216
791.679
808.716
816.186
815.999
808.923
795.487
776.934
753.791
726.174
694.248
658.83
620.934
580.912
539.01
495.521
450.953
404.691
356.887
306.911
253.672
195.351
128.848
49.445
-59.0173
-206.095
-219.136
-250.578
-281.255
-309.466
-336.522
-364.913
-397.362
-435.049
-482.795
-533.289
-567.817
-573.819
-524.917
-468.418
-476.805
-568.537
-743.361
-985.2
-1232.03
-1331.36
-1167.62
-806.185
-482.56
-378.737
-449.186
-477.341
-425.492
-385.72
-388.76
-512.474
-782.48
-1108.29
-1412.51
-1607.94
-1660.1
-1553.48
-1270.38
-888.68
-983.909
-186.638
-149.427
-101.121
-36.3792
42.0911
133.786
234.392
336.903
435.399
525.649
604.383
669.711
721.462
760.257
787.286
803.975
811.734
812.039
805.575
792.862
774.953
752.399
725.371
694.06
659.182
621.679
581.971
540.309
496.989
452.492
406.272
358.451
308.438
255.172
196.868
130.433
51.2434
-56.5398
-199.254
-161.646
-195.635
-228.109
-259.227
-288.128
-317.848
-351.332
-388.928
-430.558
-474.299
-512.849
-529.054
-484.261
-418.794
-419.124
-572.889
-797.053
-1044.5
-1283.47
-1383.04
-1228.56
-874.12
-538.143
-406.661
-463.991
-483.4
-425.875
-386.233
-398.82
-531.825
-794.83
-1113.71
-1415.05
-1609.45
-1661.12
-1554.57
-1275
-903.599
-988.25
-124.699
-80.5272
-25.4766
41.1415
116.37
200.423
290.257
380.339
466.274
545.132
614.48
672.764
719.767
755.779
781.508
797.896
805.992
806.885
801.156
789.291
772.174
750.334
723.996
693.372
659.11
622.075
582.733
541.359
498.254
453.869
407.728
359.921
309.903
256.639
198.384
132.043
53.1159
-53.814
-192.317
-81.7491
-118.789
-157.817
-196.627
-233.694
-271.152
-309.37
-347.968
-386.125
-422.757
-455.008
-474.079
-448.804
-398.169
-394.718
-586.895
-849.074
-1107.01
-1347.29
-1453.01
-1307.09
-952.707
-596.826
-432.405
-475.896
-487.573
-426.238
-387.809
-412.964
-551.992
-808.075
-1121
-1419.66
-1612.78
-1663.66
-1556.92
-1280.82
-919.795
-989.021
-44.5628
-2.9666
47.6382
108.864
177.165
252.845
333.115
413.11
489.105
558.974
620.795
673.287
716.25
749.813
774.365
790.502
798.966
800.517
795.611
784.696
768.492
747.494
721.953
692.11
658.552
622.085
583.193
542.191
499.367
455.157
409.143
361.392
311.397
258.161
199.975
133.756
55.1524
-50.7131
-185.004
-34.9875
-74.1338
-114.825
-155.786
-194.751
-233.663
-273.026
-312.45
-350.815
-386.602
-416.156
-435.363
-429.513
-408.534
-421.335
-617.203
-905.409
-1174.53
-1418.86
-1533.73
-1396.33
-1037.1
-657.438
-456.082
-482.184
-487.595
-424.98
-391.122
-430.161
-572.895
-822.72
-1130.3
-1426.21
-1617.94
-1667.75
-1560.67
-1287.95
-937.164
-986.147
4.10042
46.7356
97.1142
156.282
220.517
290.494
364.002
436.554
505.062
567.996
623.849
671.589
711.12
742.518
765.986
781.886
790.715
792.956
788.936
779.054
763.871
743.836
719.202
690.235
657.468
621.665
583.313
542.758
500.284
456.307
410.471
362.816
312.879
259.694
201.597
135.533
57.3156
-47.2995
-177.481
7.50838
-31.5737
-73.6674
-116.656
-157.89
-199.726
-241.42
-282.562
-323.055
-361.045
-393.329
-417.378
-428.897
-438.692
-488.765
-669.037
-964.94
-1243.95
-1491.1
-1614.44
-1486.24
-1120.49
-717.487
-475.957
-479.452
-481.043
-420.192
-395.685
-448.37
-593.809
-838.697
-1141.95
-1435.38
-1625.51
-1673.96
-1566.17
-1296.59
-955.394
-980.302
46.4978
87.9045
136.623
193.026
253.501
318.762
386.721
453.326
515.875
573.231
624.217
667.993
704.578
734.047
756.51
772.165
781.327
784.253
781.152
772.351
758.279
739.307
715.689
687.684
655.806
620.761
583.044
543.014
500.964
457.287
411.691
364.182
314.342
261.242
203.267
137.411
59.6721
-43.48
-169.538
39.4794
-0.0276411
-42.7831
-86.8152
-129.538
-172.621
-215.85
-258.649
-300.813
-341.487
-378.821
-411.565
-439.906
-476.48
-561.688
-738.752
-1024.85
-1309.34
-1555.66
-1682.42
-1564.68
-1193.98
-771.212
-487.569
-462.111
-463.922
-410.5
-401.01
-467.045
-615.434
-856.743
-1156.24
-1447.11
-1635.46
-1682.22
-1573.47
-1306.74
-974.484
-973.416
78.2429
119.134
166.429
220.776
278.172
339.533
403.065
464.886
522.602
575.411
622.368
662.798
696.832
724.573
746.084
761.473
770.909
774.479
772.304
764.613
751.712
733.892
711.385
684.435
653.536
619.344
582.353
542.932
501.382
458.073
412.778
365.47
315.772
262.788
204.97
139.367
62.1802
-39.3478
-161.41
65.3603
26.109
-16.6898
-61.4096
-104.909
-149.476
-194.019
-238.036
-282.078
-325.434
-367.867
-409.752
-453.01
-509.952
-616.453
-804.05
-1079.02
-1363.63
-1605.41
-1727.9
-1617.88
-1245.91
-807.531
-484.219
-426.003
-433.98
-395.731
-405.945
-485.274
-637.566
-876.925
-1173.52
-1462.21
-1648.58
-1693.27
-1583.04
-1318.62
-994.062
-965.747
103.81
143.63
189.67
241.918
296.651
354.776
414.544
472.381
526.097
575.12
618.689
656.254
688.051
714.234
734.833
749.925
759.564
763.719
762.444
755.865
744.17
727.572
706.254
680.447
650.608
617.365
581.189
542.467
501.492
458.63
413.7
366.659
317.151
264.333
206.714
141.436
64.8975
-34.8199
-152.852
85.8341
47.0052
4.18125
-40.6694
-84.8645
-129.928
-175.282
-220.489
-265.921
-311.654
-358.202
-407.277
-461.928
-532.193
-647.482
-841.226
-1111.26
-1394.36
-1630.48
-1741.85
-1633.45
-1263.79
-813.847
-459.997
-370.768
-390.207
-375.974
-409.702
-503.162
-661.044
-899.909
-1194.27
-1480.68
-1664.7
-1706.85
-1594.73
-1332.13
-1014.27
-958.679
123.744
162.763
207.41
257.942
310.316
365.57
422.197
476.663
527.006
572.82
613.492
648.579
678.406
703.164
722.881
737.633
747.4
752.07
751.65
746.159
735.685
720.354
700.294
675.702
647.006
614.798
579.529
541.589
501.273
458.932
414.435
367.725
318.464
265.858
208.484
143.582
67.7645
-30.0099
-144.132
102.24
63.7899
21.253
-23.5765
-67.7611
-113.489
-159.411
-205.186
-251.863
-299.41
-348.86
-402.616
-464.481
-542.377
-657.872
-843.506
-1104.01
-1383.7
-1614.78
-1713.6
-1596.19
-1235.41
-782.558
-413.765
-302.491
-335.558
-352.151
-411.705
-520.551
-685.824
-925.598
-1218.81
-1503.23
-1684.73
-1723.8
-1609.07
-1347.53
-1034.81
-951.736
139.524
177.539
221.05
269.827
320.133
372.959
426.789
478.36
525.803
568.861
607.031
639.956
668.024
691.463
710.34
724.706
734.51
739.626
739.993
735.545
726.283
712.242
693.49
670.174
642.695
611.601
577.328
540.253
500.68
458.939
414.951
368.64
319.694
267.357
210.287
145.84
70.8478
-24.8227
-134.975
115.144
77.2862
35.044
-9.44318
-53.7363
-99.4592
-145.716
-192.088
-239.397
-288.137
-339.429
-395.777
-461.084
-541.987
-652.67
-818.876
-1054.14
-1318.62
-1540.6
-1629.65
-1497.69
-1153.11
-714.233
-349.581
-229.785
-275.034
-325.247
-411.962
-537.821
-712.41
-954.639
-1247.41
-1529.89
-1708.33
-1743.61
-1625.7
-1364.6
-1055.93
-945.906
151.761
188.93
231.181
278.507
326.908
377.504
428.939
477.975
522.89
563.545
599.52
630.534
657.017
679.239
697.293
711.235
721.003
726.485
727.559
724.098
716.015
703.269
685.854
663.868
637.666
607.763
574.565
538.44
499.689
458.629
415.22
369.379
320.816
268.807
212.098
148.165
74.0725
-19.386
-125.678
125.294
87.9248
46.2164
2.06408
-41.7208
-87.5978
-133.932
-180.327
-228.083
-277.433
-329.634
-387.02
-453.015
-533.113
-636.368
-779.258
-976.417
-1206.43
-1406.15
-1484.93
-1349.52
-1023
-616.644
-276.799
-161.571
-214.635
-297.21
-411.126
-555.464
-741.034
-987.102
-1280.28
-1561.32
-1736.39
-1767.35
-1645.37
-1383.79
-1077.43
-940.78
161.23
197.457
238.67
284.474
331.185
379.848
429.082
475.874
518.559
557.096
591.128
620.438
645.483
666.572
683.816
697.287
706.968
712.734
714.43
711.881
704.928
693.459
677.394
656.772
631.9
603.251
571.204
536.108
498.262
457.963
415.209
369.918
321.808
270.205
213.923
150.595
77.5126
-13.5979
-115.963
133.083
96.3821
55.1595
11.6021
-31.8374
-77.2736
-123.479
-169.908
-217.531
-266.924
-319.174
-376.367
-441.176
-517.823
-612.122
-732.912
-889.792
-1072.36
-1234.24
-1295.95
-1171.31
-872.635
-508.406
-207.594
-102.796
-159.084
-270.063
-410.042
-574.079
-772.194
-1023.34
-1317.73
-1597.43
-1768.61
-1794.46
-1667.68
-1404.89
-1099.58
-937.471
168.332
203.736
243.803
288.337
333.449
380.28
427.597
472.366
513.064
549.7
581.996
609.766
633.498
653.52
669.968
682.951
692.492
698.462
700.696
698.972
693.089
682.859
668.143
648.904
625.402
598.061
567.235
533.241
496.378
456.917
414.893
370.226
322.644
271.516
215.729
153.076
81.0816
-7.60332
-106.144
138.976
102.848
62.3049
19.3041
-23.3556
-68.4823
-114.309
-160.249
-207.544
-256.429
-307.958
-363.919
-426.27
-497.959
-582.586
-684.196
-806.384
-941.797
-1058.8
-1096.52
-986.245
-726.864
-410.702
-150.527
-55.0516
-111.912
-246.117
-410.403
-594.881
-806.66
-1063.82
-1360.22
-1638.84
-1806.1
-1826.2
-1693.77
-1428.54
-1122.24
-935.595
173.536
208.058
247.165
290.348
334.021
379.241
424.743
467.682
506.583
541.511
572.238
598.608
621.127
640.137
655.804
668.294
677.65
683.752
686.432
685.448
680.557
671.516
658.123
640.272
618.165
592.178
562.629
529.808
494.002
455.458
414.241
370.275
323.305
272.734
217.53
155.647
84.8569
-1.29004
-95.9491
143.24
107.827
67.9012
25.6408
-16.4556
-60.759
-106.03
-151.479
-197.973
-245.911
-296.13
-350.062
-409.109
-475.133
-550.116
-635.372
-730.368
-827.431
-903.926
-916.864
-816.663
-599.313
-331.864
-109.405
-19.2403
-75.282
-227.428
-413.646
-618.698
-844.755
-1108.86
-1407.82
-1685.65
-1848.6
-1862.16
-1723.14
-1454.34
-1145.44
-935.838
177.093
210.83
248.882
290.929
333.215
376.876
420.768
462.035
499.288
532.662
561.953
587.037
608.422
626.472
641.384
653.379
662.507
668.678
671.719
671.387
667.404
659.491
647.38
630.909
610.208
585.608
557.385
525.8
491.116
453.567
413.229
370.04
323.758
273.821
219.279
158.246
88.7375
5.17811
-85.6961
146.164
111.383
72.2309
30.6566
-10.5193
-54.1498
-98.6566
-143.208
-188.792
-235.471
-283.949
-335.37
-390.638
-450.834
-516.758
-588.135
-662.365
-731.206
-777.223
-770.445
-677.009
-496.273
-273.213
-81.9396
3.52577
-50.315
-216.278
-421.959
-647.261
-887.903
-1159.46
-1461.45
-1738.76
-1897.32
-1903.79
-1756.92
-1482.82
-1168.74
-937.189
179.32
212.223
249.38
290.207
331.237
373.504
415.839
455.555
491.299
523.243
551.217
575.11
595.434
612.569
626.764
638.258
647.132
653.31
656.634
656.862
653.702
646.839
635.96
620.838
601.54
578.348
551.488
521.193
487.696
451.215
411.83
369.498
323.986
274.779
220.99
160.915
92.8037
11.9158
-75.1376
147.926
113.897
75.4384
34.7053
-5.74427
-48.316
-91.9509
-135.621
-179.992
-225.196
-271.691
-320.363
-371.714
-426.262
-484.009
-543.748
-602.079
-650.911
-676.368
-657.102
-570.293
-418.694
-233.433
-67.3794
10.0244
-40.1995
-214.659
-436.779
-681.211
-936.437
-1215.81
-1521.22
-1798.26
-1952.32
-1950.71
-1794.54
-1513.28
-1191.68
-939.583
180.378
212.527
248.706
288.498
328.289
369.19
410.125
448.392
482.736
513.355
540.105
562.881
582.207
598.476
611.985
622.982
631.576
637.709
641.247
641.949
639.523
633.629
623.919
610.106
592.198
570.415
544.948
515.983
483.732
448.381
410.024
368.619
323.959
275.559
222.611
163.576
96.9432
18.7481
-64.5864
148.735
115.37
77.7269
37.7821
-1.67973
-43.3888
-85.995
-128.494
-171.636
-215.219
-259.607
-305.462
-352.99
-402.3
-452.892
-503.077
-549.231
-584.063
-596.431
-571.04
-492.156
-364.451
-210.376
-67.3993
-0.436251
-46.9386
-224.625
-460.214
-722.603
-992.241
-1279.67
-1588.57
-1865.5
-2014.89
-2004.3
-1837.06
-1546.11
-1213.94
-941.754
180.492
211.847
247.182
285.854
324.51
364.169
403.727
440.64
473.677
503.064
528.674
550.403
568.778
584.24
597.089
607.597
615.891
621.938
625.622
626.72
624.939
619.928
611.312
598.754
582.205
561.824
537.763
510.162
479.205
445.05
407.789
367.39
323.664
276.167
224.161
166.278
101.234
25.795
-53.808
148.711
116.097
79.1986
40.1352
1.48636
-39.1166
-80.6405
-122.016
-163.75
-205.652
-247.913
-291.012
-334.952
-379.562
-424.05
-466.544
-503.521
-528.724
-533.291
-506.32
-436.618
-329.575
-202.366
-81.8654
-26.1881
-70.6782
-247.301
-493.065
-771.837
-1055.55
-1351.18
-1663.65
-1940.66
-2085.29
-2064.57
-1884.17
-1580.95
-1235.51
-943.951
179.764
210.39
244.804
282.512
320.039
358.466
396.774
432.412
464.218
492.448
516.979
537.722
555.204
569.902
582.118
592.144
600.123
606.049
609.821
611.242
610.02
605.809
598.205
586.842
571.604
552.609
529.952
503.74
474.112
441.209
405.106
365.784
323.067
276.555
225.577
168.932
105.551
32.8683
-43.1064
147.986
116.052
79.9867
41.7505
4.10286
-35.5666
-75.9323
-116.027
-156.395
-196.623
-236.802
-277.3
-317.962
-358.46
-397.88
-434.307
-464.582
-483.395
-483.882
-458.157
-398.402
-309.897
-206.787
-108.106
-64.5186
-109.748
-283.394
-536.885
-830.87
-1128.81
-1432.6
-1748.53
-2025.26
-2164.91
-2132.74
-1936.89
-1618.48
-1256.91
-945.91
178.352
208.216
241.823
278.488
314.971
352.27
389.336
423.761
454.415
481.554
505.07
524.878
541.522
555.493
567.107
576.661
584.32
590.092
593.906
595.578
594.836
591.334
584.66
574.417
560.44
542.795
521.532
496.717
468.453
436.847
401.968
363.792
322.169
276.729
226.888
171.585
109.98
40.081
-32.2855
146.648
115.46
80.1538
42.8097
6.01742
-32.551
-71.7753
-110.676
-149.627
-188.223
-226.437
-264.538
-302.287
-339.278
-374.58
-406.369
-431.924
-446.829
-445.827
-423.172
-373.654
-302.177
-220.644
-142.918
-112.39
-161.434
-332.305
-591.68
-899.724
-1212.06
-1524.12
-1843.18
-2119.61
-2254.11
-2209.13
-1995.33
-1658.78
-1278.83
-948.961
176.323
205.482
238.217
273.97
309.408
345.578
381.505
414.777
444.333
470.442
492.991
511.911
527.771
541.058
552.095
561.19
568.522
574.115
577.925
579.785
579.449
576.571
570.745
561.544
548.767
532.425
512.537
489.116
462.235
431.963
398.361
361.391
320.934
276.645
228.025
174.144
114.381
47.2477
-21.6253
144.794
114.285
79.8029
43.3021
7.48116
-30.1413
-68.2286
-105.882
-143.5
-180.548
-216.947
-252.899
-288.118
-322.194
-354.227
-382.611
-404.999
-417.885
-417.158
-398.799
-359.436
-303.72
-241.271
-183.542
-166.855
-222.99
-393.546
-658.468
-980.235
-1307.67
-1628.36
-1949.62
-2225.2
-2353.87
-2294.45
-2059.79
-1701.99
-1301.66
-953.29
173.793
202.224
234.183
268.953
303.42
338.542
373.327
405.5
434.015
459.144
480.775
498.86
513.978
526.619
537.108
545.762
552.76
558.16
561.924
563.921
563.917
561.585
556.519
548.28
536.63
521.543
502.99
480.957
455.466
426.562
394.281
358.588
319.368
276.319
229.016
176.665
118.832
54.4803
-10.9486
142.489
112.704
78.9803
43.3508
8.37816
-28.2077
-65.225
-101.727
-138.04
-173.652
-208.415
-242.486
-275.569
-307.281
-336.818
-362.798
-383.277
-395.516
-396.354
-383.032
-353.59
-312.296
-266.774
-227.508
-225.306
-291.604
-465.721
-736.953
-1072.04
-1415.24
-1744.86
-2067.47
-2341.72
-2464.24
-2388.74
-2130.11
-1747.85
-1325.43
-959.554
170.809
198.559
229.686
263.588
297.074
331.145
364.881
396.001
423.519
447.709
468.466
485.76
500.18
512.21
522.177
530.398
537.073
542.257
545.948
548.032
548.297
546.435
542.045
534.688
524.092
510.198
492.94
472.269
448.168
420.652
389.728
355.361
317.442
275.707
229.794
179.048
123.197
61.596
-0.514875
139.795
110.679
77.7572
42.9484
8.88999
-26.7902
-62.7733
-98.1426
-133.268
-167.573
-200.893
-233.358
-264.684
-294.535
-322.255
-346.654
-366.222
-378.805
-382.106
-374.199
-354.221
-325.986
-295.641
-273.116
-286.142
-365.447
-548.088
-827.922
-1176.42
-1536.25
-1875.23
-2198.05
-2469.61
-2585.28
-2491.48
-2205.41
-1795.3
-1349.13
-966.301
167.458
194.511
224.889
257.858
290.428
323.519
356.198
386.309
412.875
436.166
456.091
472.635
486.399
497.851
507.317
515.124
521.469
526.436
530.028
532.161
532.639
531.172
527.382
520.824
511.208
498.439
482.428
463.085
440.364
414.245
384.713
351.721
315.171
274.828
230.399
181.345
127.556
68.6942
9.82753
136.765
108.349
76.1652
42.1864
8.94322
-25.7921
-60.8124
-95.1595
-129.182
-162.323
-194.397
-225.527
-255.448
-283.901
-310.368
-333.887
-353.286
-366.977
-373.301
-371.013
-359.814
-343.32
-326.741
-319.494
-347.934
-443.206
-638.965
-930.327
-1292.11
-1668.62
-2017.67
-2339.81
-2607.55
-2715.89
-2602.09
-2285.13
-1843.81
-1372.04
-972.597
163.774
190.17
219.754
251.895
283.539
315.647
347.346
376.483
402.132
424.559
443.685
459.517
472.653
483.553
492.545
499.947
505.978
510.717
514.202
516.345
516.986
515.853
512.589
506.753
498.039
486.327
471.503
453.449
432.087
407.363
379.242
347.662
312.53
273.64
230.762
183.461
131.768
75.607
19.8465
133.45
105.684
74.2639
41.0727
8.66945
-25.2323
-59.3362
-92.7252
-125.772
-157.892
-188.913
-218.966
-247.81
-275.269
-300.966
-324.168
-343.978
-359.308
-369.004
-372.385
-369.329
-363.355
-359.437
-366.277
-409.844
-523.988
-737.118
-1043.35
-1418.8
-1811.64
-2171.87
-2492.88
-2754.85
-2854.65
-2718.85
-2367.45
-1891.81
-1392.55
-976.304
159.825
185.554
214.42
245.675
276.453
307.64
338.35
366.547
391.313
412.908
431.268
446.424
458.961
469.335
477.87
484.89
490.607
495.13
498.485
500.62
501.381
500.531
497.724
492.534
484.644
473.916
460.216
443.403
423.369
400.033
373.335
343.2
309.538
272.172
230.918
185.45
135.91
82.4225
29.681
129.897
102.795
72.0824
39.6699
8.02113
-25.0374
-58.3022
-90.8384
-123.011
-154.256
-184.402
-213.609
-241.673
-268.486
-293.822
-317.144
-337.824
-355.142
-368.418
-377.444
-382.154
-385.795
-393.662
-413.535
-471.512
-605.738
-840.155
-1163.68
-1553.13
-1961.37
-2333.97
-2654.37
-2908.4
-2998.03
-2839.14
-2450.79
-1938.44
-1410.3
-977.064
155.639
180.739
208.848
239.31
269.214
299.477
329.269
356.554
380.462
401.252
418.874
433.379
445.341
455.214
463.312
469.964
475.383
479.683
482.911
485.012
485.866
485.248
482.837
478.221
471.083
461.268
448.625
432.998
414.253
392.284
367.007
338.338
306.18
270.383
230.808
187.217
139.845
88.9858
39.1208
126.135
99.655
69.6678
37.9908
7.10387
-25.2062
-57.685
-89.4398
-120.857
-151.361
-180.803
-209.372
-236.91
-263.38
-288.68
-312.473
-334.357
-353.913
-370.842
-385.423
-397.748
-410.621
-429.797
-461.852
-533.134
-686.727
-944.672
-1287.75
-1691.43
-2113.93
-2499.78
-2820.67
-3063.69
-3140.29
-2957.83
-2531.31
-1981.27
-1423.81
-973.994
151.27
175.735
203.155
232.78
261.866
291.263
320.128
346.529
369.607
389.618
406.527
420.406
431.816
441.204
448.891
455.191
460.324
464.408
467.495
469.557
470.472
470.048
467.977
463.87
457.412
448.437
436.784
422.283
404.781
384.153
360.292
333.101
302.482
268.305
230.466
188.81
143.641
95.3752
48.2951
122.209
96.3614
67.0425
36.0892
5.89337
-25.6708
-57.4356
-88.4988
-119.254
-149.146
-178.029
-206.143
-233.372
-259.745
-285.27
-309.79
-333.116
-355.081
-375.665
-395.605
-415.403
-437.45
-467.839
-511.549
-594.576
-764.85
-1045.35
-1409.75
-1827.56
-2261.63
-2659.26
-2981.55
-3210.45
-3270.78
-3066.67
-2604.11
-2017.9
-1432.62
-967.702
146.742
170.607
197.311
226.183
254.448
282.978
310.979
336.524
358.794
378.047
394.264
407.535
418.41
427.338
434.625
440.589
445.445
449.316
452.268
454.269
455.233
454.961
453.183
449.527
443.683
435.48
424.749
411.312
395.002
375.678
353.213
327.501
298.436
265.908
229.838
190.143
147.177
101.448
57.0143
118.147
92.8906
64.2523
33.9857
4.47844
-26.4253
-57.518
-87.9498
-118.145
-147.533
-175.989
-203.798
-230.893
-257.36
-283.308
-308.734
-333.649
-358.104
-382.297
-407.292
-434.193
-465.202
-506.679
-561.982
-654.719
-837.233
-1136.18
-1521.69
-1954.57
-2397.65
-2802.71
-3124.63
-3336.41
-3376.67
-3155.1
-2662.31
-2044.32
-1434.86
-957.64
142.102
165.367
191.417
219.499
246.997
274.713
301.845
326.56
348.045
366.564
382.11
394.793
405.156
413.631
420.535
426.173
430.759
434.425
437.23
439.173
440.154
440.014
438.489
435.233
429.944
422.447
412.572
400.136
384.965
366.903
345.812
321.572
294.074
263.222
228.96
191.259
150.507
107.269
65.3948
113.988
89.3273
61.3197
31.7238
2.84127
-27.3978
-57.8807
-87.7523
-117.451
-146.433
-174.57
-202.192
-229.284
-255.99
-282.498
-308.936
-335.491
-362.423
-390.126
-419.816
-453.155
-492.411
-544.101
-610.842
-711.206
-899.61
-1209.39
-1612.19
-2060.16
-2511.29
-2919.43
-3237.58
-3430.44
-3447.59
-3213.11
-2699.37
-2057.16
-1429.52
-943.751
137.371
160.069
185.444
212.817
239.545
266.452
292.773
316.68
337.401
355.207
370.101
382.212
392.071
400.113
406.639
411.958
416.282
419.739
422.403
424.269
425.264
425.228
423.924
421.023
416.234
409.383
400.303
388.808
374.721
357.875
338.123
315.336
289.402
260.231
227.788
192.083
153.529
112.717
73.2685
109.755
85.6509
58.2849
29.3253
1.07179
-28.5793
-58.4807
-87.8237
-117.096
-145.746
-173.653
-201.176
-228.355
-255.39
-282.538
-310.027
-338.197
-367.488
-398.488
-432.458
-471.387
-517.689
-577.755
-654.768
-760.995
-947.595
-1256.57
-1667.44
-2127.21
-2585.67
-2994.78
-3306.72
-3480.67
-3472.87
-3228.94
-2706.54
-2051.39
-1414.21
-924.682
132.592
154.728
179.486
206.12
232.127
258.269
283.772
306.895
326.877
343.99
358.256
369.814
379.188
386.799
392.96
397.963
402.028
405.278
407.795
409.58
410.572
410.621
409.51
406.926
402.59
396.332
387.989
377.378
364.319
348.643
330.193
308.836
284.456
256.97
226.355
192.658
156.287
117.846
80.7462
105.486
81.9431
55.1689
26.834
-0.846347
-29.8943
-59.2608
-88.1346
-117.002
-145.372
-173.115
-200.597
-227.911
-255.315
-283.12
-311.637
-341.323
-372.763
-406.716
-444.459
-488.076
-540.015
-606.088
-690.677
-801.198
-979.262
-1272.96
-1675.85
-2137.1
-2598.72
-3006.81
-3311.36
-3468.39
-3438.03
-3187.22
-2672.06
-2020.82
-1386.37
-899.347
127.786
149.39
173.516
199.48
224.761
250.138
274.871
297.231
316.495
332.94
346.603
357.624
366.522
373.726
379.516
384.216
388.013
391.065
393.421
395.127
396.093
396.216
395.267
392.966
389.043
383.332
375.676
365.895
353.811
339.253
322.063
302.101
279.251
253.434
224.636
192.922
158.7
122.558
87.6799
101.206
78.1867
52.0141
24.2756
-2.82129
-31.3385
-60.1774
-88.5902
-117.096
-145.219
-172.832
-200.301
-227.764
-255.53
-283.956
-313.416
-344.452
-377.749
-414.194
-455.09
-502.456
-558.651
-628.554
-717.157
-829.659
-995.4
-1261.02
-1635.71
-2079.69
-2533.08
-2935.34
-3231.87
-3376.39
-3331.04
-3075.71
-2584.64
-1958.23
-1342.06
-865.747
122.993
144.069
167.612
192.875
217.47
242.115
266.066
287.682
306.254
322.061
335.148
345.656
354.106
360.896
366.349
370.726
374.283
377.106
379.322
380.912
381.857
382.019
381.216
379.168
375.621
370.417
363.403
354.402
343.243
329.754
313.779
295.175
273.827
249.66
222.663
192.916
160.81
126.903
94.1767
96.952
74.46
48.8444
21.693
-4.87492
-32.8263
-61.1723
-89.1669
-117.298
-145.186
-172.676
-200.131
-227.722
-255.804
-284.772
-315.036
-347.202
-382.005
-420.416
-463.734
-513.862
-572.968
-644.882
-734.246
-845.647
-998.027
-1229.13
-1558.35
-1962.29
-2388.16
-2773.48
-3059.17
-3195.92
-3146.44
-2894.91
-2441.27
-1860.19
-1279.39
-823.253
118.231
138.804
161.744
186.363
210.257
234.161
257.373
278.264
296.168
311.363
323.902
333.925
341.943
348.356
353.46
357.552
360.841
363.463
365.501
366.986
367.875
368.067
367.38
365.56
362.357
357.621
351.204
342.938
332.655
320.187
305.38
288.091
268.207
245.654
220.426
192.604
162.559
130.809
100.113
92.7413
70.7444
45.7009
19.1103
-6.9049
-34.3577
-62.2077
-89.7555
-117.539
-145.181
-172.536
-199.95
-227.617
-255.932
-285.32
-316.209
-349.232
-385.156
-424.965
-469.929
-521.787
-582.484
-654.88
-742.617
-849.836
-988.813
-1185.78
-1461.77
-1808.01
-2185.31
-2537.12
-2804.19
-2935.04
-2892.06
-2659.26
-2250.33
-1729.38
-1198.73
-771.861
113.532
133.6
155.973
179.907
203.128
226.319
248.777
268.964
286.227
300.841
312.862
322.434
330.047
336.106
340.89
344.699
347.737
350.145
352.011
353.367
354.191
354.386
353.793
352.167
349.276
344.968
339.106
331.531
322.08
310.588
296.902
280.885
262.426
241.452
217.958
192.023
163.99
134.326
105.601
88.6039
67.1147
42.603
16.5744
-8.93728
-35.8418
-63.214
-90.3475
-117.742
-145.107
-172.298
-199.626
-227.294
-255.734
-285.384
-316.687
-350.267
-386.902
-427.536
-473.375
-525.954
-586.953
-658.438
-742.891
-843.648
-969.17
-1136.09
-1361
-1643.49
-1958.48
-2261.18
-2498.45
-2620.4
-2589.58
-2388.94
-2032.01
-1577.36
-1105.55
-714.688
108.904
128.48
150.257
173.551
196.081
218.548
240.294
259.796
276.44
290.498
302.032
311.179
318.425
324.154
328.645
332.188
334.99
337.188
338.879
340.099
340.838
341.015
340.481
339.021
336.4
332.48
327.133
320.209
311.546
300.984
288.375
273.585
256.505
237.064
215.257
191.153
165.065
137.407
110.538
84.5481
63.5443
39.588
14.1062
-10.8671
-37.2878
-64.1605
-90.8342
-117.848
-144.891
-171.863
-199.045
-226.628
-255.056
-284.794
-316.27
-350.1
-387.019
-427.931
-473.909
-526.278
-586.392
-655.713
-735.676
-828.607
-940.618
-1082.06
-1263.54
-1486.97
-1737.65
-1983.54
-2181.9
-2288.87
-2269.31
-2105.81
-1806.96
-1418.49
-1007.34
-655.526
104.365
123.437
144.643
167.255
189.121
210.894
231.92
250.759
266.807
280.332
291.403
300.158
307.063
312.496
316.723
320.028
322.611
324.614
326.132
327.212
327.853
327.984
327.487
326.147
323.758
320.185
315.311
308.992
301.074
291.397
279.818
266.21
250.466
232.515
212.348
190.026
165.824
140.098
115.037
80.5917
60.0947
36.6678
11.7443
-12.7343
-38.6018
-64.9856
-91.2216
-117.792
-144.458
-171.144
-198.105
-225.5
-253.78
-283.412
-314.819
-348.58
-385.379
-426.038
-471.496
-522.832
-581.069
-647.162
-721.736
-806.154
-904.899
-1024.57
-1171.08
-1345.56
-1539.09
-1730.01
-1886.6
-1973.65
-1960.78
-1831.19
-1588.76
-1264.8
-911.8
-599.137
99.9107
118.482
139.088
161.062
182.255
203.336
223.689
241.883
257.351
270.359
280.984
289.365
295.958
301.122
305.116
308.213
310.605
312.433
313.791
314.734
315.267
315.34
314.843
313.593
311.392
308.119
303.67
297.908
290.683
281.843
271.248
258.775
244.319
227.808
209.228
188.625
166.238
142.369
119.01
76.7277
56.7263
33.8665
9.4959
-14.4348
-39.8047
-65.6684
-91.3987
-117.531
-143.764
-170.089
-196.734
-223.831
-251.815
-281.151
-312.246
-345.629
-381.927
-421.853
-466.209
-515.821
-571.409
-633.474
-702.048
-777.756
-863.812
-964.659
-1083.22
-1219.28
-1366.62
-1510.6
-1628.7
-1694.45
-1683.45
-1580.64
-1386.31
-1121.21
-822.133
-547.216
95.5503
113.608
133.641
154.949
175.509
195.937
215.618
233.188
248.089
260.591
270.782
278.805
285.101
290.022
293.811
296.73
298.962
300.643
301.865
302.684
303.114
303.117
302.602
301.406
299.348
296.325
292.247
286.984
280.395
272.337
262.675
251.287
238.069
222.948
205.902
186.961
166.328
144.247
122.559
72.9663
53.4909
31.18
7.38946
-16.0225
-40.8131
-66.1508
-91.3913
-117.008
-142.753
-168.638
-194.871
-221.556
-249.098
-277.955
-308.503
-341.23
-376.674
-415.455
-458.211
-505.556
-557.918
-615.439
-677.726
-744.794
-819.091
-903.595
-999.594
-1105.91
-1217.65
-1324.51
-1410.72
-1457.05
-1444.93
-1361.71
-1205.52
-989.631
-738.764
-499.681
91.2788
108.832
128.276
148.977
168.91
188.699
207.754
224.714
239.058
251.061
260.822
268.488
274.499
279.188
282.794
285.562
287.665
289.23
290.344
291.066
291.409
291.345
290.802
289.631
287.676
284.857
281.088
276.26
270.244
262.906
254.116
243.755
231.718
217.928
202.355
185.011
166.063
145.701
125.595
69.3051
50.3436
28.6237
5.41993
-17.4105
-41.6649
-66.4293
-91.1049
-116.193
-141.396
-166.758
-192.484
-218.642
-245.605
-273.803
-303.594
-335.405
-369.7
-406.982
-447.746
-492.419
-541.173
-593.884
-649.77
-708.641
-772.267
-842.67
-920.266
-1003.44
-1088.13
-1166.78
-1228.2
-1258.63
-1244.29
-1175.1
-1048.17
-871.532
-661.618
-455.119
87.1144
104.163
123.059
143.142
162.496
181.684
200.115
216.483
230.281
241.791
251.124
258.437
264.161
268.625
272.057
274.692
276.691
278.17
279.21
279.864
280.146
280.035
279.467
278.307
276.43
273.763
270.248
265.789
260.276
253.584
245.593
236.188
225.264
212.74
198.575
182.764
165.438
146.732
128.191
65.7633
47.3367
26.1908
3.60315
-18.6687
-42.2913
-66.4688
-90.5809
-115.058
-139.662
-164.417
-189.544
-215.072
-241.328
-268.713
-297.555
-328.231
-361.127
-396.632
-435.117
-476.828
-521.767
-569.547
-619.207
-670.501
-724.574
-782.957
-845.478
-910.475
-974.555
-1032.05
-1074.86
-1093.1
-1076.67
-1017.74
-913.208
-767.648
-591.651
-414.277
83.0666
99.6329
117.983
137.51
156.293
174.889
192.729
208.517
221.781
232.809
241.718