/*--------------------------------*- C++ -*----------------------------------*\
| =========                 |                                                 |
| \\      /  F ield         | OpenFOAM: The Open Source CFD Toolbox           |
|  \\    /   O peration     | Version:  v1806                                 |
|   \\  /    A nd           | Web:      www.OpenFOAM.com                      |
|    \\/     M anipulation  |                                                 |
\*---------------------------------------------------------------------------*/
FoamFile
{
    version     2.0;
    format      ascii;
    class       surfaceScalarField;
    location    "50";
    object      phi;
}
// * * * * * * * * * * * * * * * * * * * * * * * * * * * * * * * * * * * * * //

dimensions      [0 3 -1 0 0 0 0];
oriented        oriented;


internalField   nonuniform List<scalar> 
21254
(
-0.479004
0.452912
0.026011
0.418091
0.0348614
0.359438
0.0585965
0.283207
0.0762528
0.193549
0.0896556
0.0977498
0.0958138
0.0155819
0.0823455
-0.0384389
0.0541977
-0.0672382
0.0289833
-0.0755602
0.00842398
-0.0814942
0.00597468
-0.068334
-0.0132199
-0.0210327
-0.0474533
0.023905
-0.0451928
0.0117587
0.0119094
-0.0447604
0.0564923
-0.145148
0.100395
-0.247889
0.102722
-0.310725
0.062774
-0.313762
0.00303441
-0.26608
-0.0478728
-0.180857
-0.0851613
-0.0560028
-0.125365
0.0851398
-0.140656
0.142812
-0.0565628
0.113045
0.0311847
0.0603771
0.0533806
0.0402595
0.016599
0.0103036
0.0327784
-0.0853761
0.09132
-0.216386
0.12859
-0.316129
0.0996109
-0.377723
0.0627228
-0.406526
0.0277963
-0.401084
-0.00434639
-0.369128
-0.0326925
-0.308427
-0.0610768
-0.137023
-0.171339
0.112139
-0.229901
-0.489334
0.0103464
-0.496434
0.00706073
-0.490188
-0.00624973
-0.473309
-0.0168934
-0.44852
-0.0247915
-0.415229
-0.0332905
-0.374214
-0.0410175
-0.32881
-0.0454095
-0.282584
-0.0462284
-0.236716
-0.0458755
-0.192984
-0.0437359
-0.152575
-0.0404201
-0.115651
-0.0369345
-0.0819954
-0.0336756
-0.0514305
-0.0305892
-0.0232948
-0.0281853
0.00290746
-0.0262753
0.026546
-0.0237409
0.0480048
-0.021513
0.0686394
-0.0207126
0.0888075
-0.0201796
0.108388
-0.0196386
0.12756
-0.0190469
0.145891
-0.0181797
0.163156
-0.0171384
0.179487
-0.01625
0.194864
-0.0153868
0.209393
-0.0145446
0.223022
-0.0138444
0.236292
-0.0129266
0.248861
-0.0124846
0.261084
-0.0121885
0.273236
-0.0120587
0.285599
-0.0123338
0.298858
-0.0130813
0.313857
-0.0147753
0.331858
-0.0182456
0.358946
-0.031908
0.425744
-0.0621398
-0.515685
0.528301
0.0133439
0.537667
0.0254993
0.537685
0.0585508
0.523166
0.0907838
0.485977
0.126842
0.416001
0.165807
0.312558
0.185799
0.185533
0.181309
0.0643048
0.150275
-0.019759
0.0925604
-0.0591793
0.0454215
-0.0658957
-0.00656351
-0.0426734
-0.0707944
-0.0122543
-0.0757615
-0.0415849
0.041132
-0.14851
0.163394
-0.260497
0.212369
-0.323919
0.166122
-0.341464
0.0802906
-0.328989
-0.00943702
-0.278023
-0.0989312
-0.178848
-0.1845
-0.0484498
-0.256302
0.0749491
-0.264529
0.139889
-0.121827
0.137074
0.0336634
0.105597
0.0849991
0.0690739
0.052585
-0.0461811
0.149797
-0.220245
0.264534
-0.340656
0.248474
-0.402936
0.160794
-0.431137
0.0900409
-0.439498
0.0340764
-0.426355
-0.0183526
-0.389034
-0.0706819
-0.316803
-0.133412
-0.168875
-0.317478
0.105067
-0.490211
-0.500567
-0.00478125
-0.484878
-0.00866548
-0.466243
-0.0248842
-0.444517
-0.038637
-0.417762
-0.0515431
-0.385726
-0.065328
-0.349354
-0.0773975
-0.309867
-0.0849035
-0.269353
-0.0867486
-0.228683
-0.0865544
-0.189074
-0.0833524
-0.151479
-0.0780284
-0.11619
-0.0722349
-0.0833102
-0.0665763
-0.0528452
-0.0610762
-0.0245878
-0.05648
0.0016739
-0.0525803
0.0263347
-0.048481
0.0496093
-0.0448661
0.0716555
-0.0428617
0.092987
-0.0415838
0.113783
-0.0405178
0.134225
-0.039444
0.154005
-0.0378745
0.172839
-0.0358529
0.190793
-0.0341388
0.207862
-0.0324337
0.224094
-0.0308483
0.239467
-0.0294332
0.254424
-0.0276818
0.268675
-0.026739
0.282563
-0.0260549
0.296329
-0.0257699
0.310278
-0.0261856
0.325082
-0.0277355
0.341773
-0.0309911
0.361234
-0.0373383
0.391956
-0.0658947
0.448733
-0.111774
-0.490035
0.495147
0.00828936
0.500483
0.0201114
0.508424
0.0506513
0.519606
0.0795884
0.529155
0.117293
0.525705
0.169268
0.491882
0.219665
0.41421
0.258977
0.293576
0.270941
0.152443
0.233723
0.0383433
0.159532
-0.0300561
0.0618062
-0.0508669
-0.0500563
-0.0562135
-0.0705006
-0.110802
0.0956832
-0.20465
0.257251
-0.278061
0.285796
-0.321244
0.209304
-0.346159
0.10517
-0.341953
-0.0136659
-0.29028
-0.15067
-0.188913
-0.285825
-0.0588504
-0.386292
0.0603962
-0.383317
0.124334
-0.184614
0.129465
0.0299533
0.106639
0.108444
0.0235605
0.134284
-0.14286
0.316596
-0.293128
0.413294
-0.368652
0.322645
-0.412768
0.204933
-0.442269
0.121089
-0.456004
0.047437
-0.443957
-0.0287753
-0.403948
-0.111166
-0.326823
-0.210699
-0.186637
-0.458671
0.0835556
-0.75671
-0.483852
-0.0110249
-0.472784
-0.019716
-0.455731
-0.0419699
-0.433508
-0.0608501
-0.406344
-0.0787079
-0.373957
-0.097728
-0.337562
-0.113803
-0.299872
-0.122602
-0.261281
-0.125351
-0.222557
-0.125285
-0.185121
-0.1208
-0.149209
-0.113949
-0.115032
-0.106427
-0.0828313
-0.0987916
-0.052538
-0.0913945
-0.0241408
-0.084908
0.00250795
-0.0792735
0.027829
-0.0738415
0.0520489
-0.0691201
0.0751575
-0.0659987
0.0974892
-0.0639345
0.119266
-0.0623051
0.140664
-0.0607773
0.161455
-0.0585583
0.181364
-0.0556576
0.200368
-0.0530811
0.218515
-0.0505387
0.235847
-0.0481819
0.252393
-0.0460606
0.268553
-0.0435787
0.284113
-0.0422075
0.299357
-0.0412439
0.314615
-0.0409296
0.330154
-0.0417239
0.346693
-0.0440946
0.36527
-0.0494791
0.386681
-0.0592426
0.418969
-0.101492
0.474225
-0.165252
-0.490701
0.500635
-0.00169589
0.508053
0.0127318
0.513055
0.045643
0.517756
0.0748936
0.524715
0.110376
0.534938
0.159043
0.542585
0.212009
0.528911
0.272699
0.471745
0.328113
0.359935
0.34554
0.213731
0.305735
0.0736229
0.201889
-0.0279067
0.0514069
-0.074175
-0.0243384
-0.130321
0.151784
-0.202852
0.329768
-0.260449
0.343392
-0.309264
0.258108
-0.345578
0.141484
-0.348598
-0.0106196
-0.301543
-0.197712
-0.203917
-0.383519
-0.0773828
-0.513041
0.0407381
-0.501744
0.106549
-0.250803
0.115401
0.0204862
0.0814605
0.142172
-0.0467709
0.262416
-0.217169
0.488014
-0.321288
0.517269
-0.376516
0.377665
-0.424407
0.251649
-0.460278
0.155797
-0.47662
0.0616565
-0.464268
-0.0421969
-0.421645
-0.15439
-0.340739
-0.291625
-0.204869
-0.593352
0.0528106
-1.00712
-0.479407
-0.0223021
-0.465253
-0.033887
-0.445889
-0.0613202
-0.422498
-0.0842447
-0.394616
-0.106599
-0.361791
-0.130559
-0.325819
-0.149791
-0.288966
-0.159472
-0.251726
-0.162603
-0.214713
-0.162312
-0.179022
-0.156506
-0.144779
-0.148206
-0.111858
-0.139368
-0.0804768
-0.130191
-0.050671
-0.12123
-0.0222536
-0.113356
0.00468568
-0.106262
0.0305103
-0.0997155
0.0554016
-0.0940819
0.0793773
-0.0900425
0.102602
-0.0872393
0.125312
-0.0850695
0.147664
-0.0831397
0.169457
-0.0802971
0.190383
-0.0765071
0.210413
-0.0730283
0.229563
-0.0696421
0.247886
-0.0665288
0.26539
-0.0636894
0.282498
-0.0605675
0.299014
-0.0587288
0.315236
-0.0574455
0.331468
-0.0571019
0.348044
-0.0581994
0.365676
-0.0615418
0.385441
-0.068744
0.408247
-0.0815858
0.441399
-0.136367
0.495035
-0.212859
-0.496072
0.506678
-0.0123386
0.514859
0.00454906
0.521239
0.0392721
0.524965
0.0712113
0.527812
0.107498
0.532138
0.154755
0.542221
0.201969
0.554043
0.260848
0.551105
0.331059
0.504419
0.392222
0.394968
0.415183
0.234834
0.362014
0.0633577
0.222853
-0.0476467
0.0866165
-0.103412
0.207536
-0.16558
0.391951
-0.225517
0.403348
-0.285516
0.318115
-0.331718
0.187671
-0.344351
0.00200972
-0.306826
-0.235278
-0.218197
-0.472109
-0.0999061
-0.631214
0.0167105
-0.617908
0.0863938
-0.319346
0.0952736
0.0131805
0.0355556
0.20279
-0.118905
0.416235
-0.261193
0.630759
-0.333283
0.588027
-0.388138
0.43168
-0.442897
0.306271
-0.482639
0.197268
-0.500314
0.079438
-0.487465
-0.0533097
-0.442517
-0.199451
-0.358433
-0.375687
-0.225296
-0.727736
0.0118964
-1.24365
-0.483119
-0.0352423
-0.466924
-0.0500823
-0.444417
-0.083825
-0.418687
-0.109969
-0.388712
-0.136583
-0.354256
-0.165045
-0.317081
-0.186983
-0.279703
-0.196868
-0.24274
-0.199581
-0.20653
-0.198539
-0.171794
-0.191254
-0.13876
-0.181257
-0.10694
-0.1712
-0.0763887
-0.160763
-0.047108
-0.150531
-0.0189863
-0.141512
0.00805892
-0.133339
0.0342248
-0.125921
0.0596517
-0.119534
0.0843266
-0.11475
0.108396
-0.111322
0.132002
-0.108693
0.155293
-0.106387
0.178071
-0.103026
0.200034
-0.0983716
0.221097
-0.094035
0.241269
-0.0897416
0.260604
-0.085851
0.279119
-0.0821595
0.297175
-0.0784877
0.314632
-0.0760739
0.331796
-0.0745618
0.348974
-0.0741652
0.366474
-0.0757292
0.385109
-0.079993
0.40592
-0.0895859
0.429964
-0.106222
0.463713
-0.172011
0.516015
-0.265714
-0.502334
0.51552
-0.0255309
0.527351
-0.00728272
0.536973
0.029632
0.543419
0.0647444
0.546701
0.104287
0.547759
0.153683
0.549248
0.20046
0.556303
0.253831
0.567851
0.319494
0.567097
0.392963
0.519482
0.462786
0.397232
0.48425
0.210317
0.409747
0.0331472
0.263756
-0.0464302
0.287089
-0.105396
0.45091
-0.17383
0.471779
-0.244687
0.388972
-0.300446
0.243433
-0.324964
0.0265733
-0.300782
-0.259423
-0.226335
-0.546561
-0.121872
-0.735815
-0.010225
-0.729771
0.0625861
-0.39269
0.0654307
0.00954604
-0.022432
0.290113
-0.179401
0.573119
-0.285555
0.737658
-0.344463
0.647028
-0.405735
0.492925
-0.465659
0.365017
-0.508146
0.238406
-0.52699
0.0960656
-0.513832
-0.067641
-0.466782
-0.24711
-0.38005
-0.462353
-0.249067
-0.857748
-0.0376099
-1.4499
-0.487256
-0.0503341
-0.469305
-0.068028
-0.444554
-0.108548
-0.41651
-0.138032
-0.384417
-0.168702
-0.348046
-0.201419
-0.309363
-0.225693
-0.27114
-0.235111
-0.233916
-0.236827
-0.197861
-0.234613
-0.16373
-0.225407
-0.131476
-0.213532
-0.100505
-0.202191
-0.0707928
-0.190501
-0.0421169
-0.179234
-0.0143147
-0.169352
0.0127026
-0.160397
0.0390309
-0.152302
0.0648587
-0.145416
0.0901328
-0.140091
0.114921
-0.136177
0.139368
-0.133199
0.163565
-0.130613
0.187349
-0.126793
0.210351
-0.121325
0.232445
-0.116044
0.253666
-0.110899
0.274034
-0.106181
0.293579
-0.10177
0.312637
-0.0974586
0.331101
-0.094523
0.349235
-0.0926723
0.367364
-0.0922317
0.385885
-0.0941436
0.405505
-0.0993967
0.427393
-0.110953
0.452655
-0.130948
0.487033
-0.20686
0.538241
-0.312177
-0.512814
0.528295
-0.0409601
0.541398
-0.0204417
0.553122
0.0179109
0.561702
0.0562072
0.567327
0.0986029
0.569708
0.151357
0.569667
0.200537
0.568929
0.25453
0.573488
0.314922
0.583437
0.382995
0.578466
0.46774
0.517538
0.545168
0.367888
0.559387
0.163705
0.46793
0.0362803
0.414515
-0.0291414
0.516344
-0.104581
0.547238
-0.184967
0.469363
-0.250496
0.308963
-0.28789
0.0639609
-0.27974
-0.267572
-0.223699
-0.602586
-0.138509
-0.820848
-0.0377056
-0.830212
0.0343801
-0.463631
0.0240954
0.021515
-0.0839167
0.399092
-0.223688
0.712845
-0.301485
0.816203
-0.359666
0.704219
-0.427692
0.560388
-0.491461
0.428568
-0.536388
0.2851
-0.556443
0.116506
-0.543092
-0.0789837
-0.494352
-0.295789
-0.405487
-0.550896
-0.276805
-0.987783
-0.09105
-1.63623
-0.495513
-0.0676501
-0.475238
-0.0882513
-0.447873
-0.135932
-0.417283
-0.168613
-0.382843
-0.203148
-0.343987
-0.24032
-0.303314
-0.266383
-0.263608
-0.274837
-0.225483
-0.274973
-0.188885
-0.271229
-0.154937
-0.259376
-0.123124
-0.245361
-0.0927775
-0.232559
-0.0637429
-0.219553
-0.0356784
-0.207325
-0.0082162
-0.196839
0.0185845
-0.187235
0.0449697
-0.178713
0.0710527
-0.171535
0.0968254
-0.165881
0.122269
-0.161653
0.147502
-0.158428
0.172578
-0.155698
0.19734
-0.151496
0.221364
-0.145325
0.244535
-0.139112
0.266804
-0.133137
0.288242
-0.127526
0.308836
-0.122332
0.328931
-0.117405
0.348418
-0.11395
0.36758
-0.111764
0.386756
-0.11132
0.406275
-0.113681
0.426998
-0.119979
0.44997
-0.134003
0.476468
-0.15817
0.511495
-0.242978
0.561675
-0.364122
-0.524658
0.542195
-0.0586012
0.55781
-0.0360602
0.572097
0.00360679
0.582412
0.0458426
0.589916
0.0912049
0.594096
0.147155
0.59529
0.199333
0.593649
0.256195
0.590619
0.317923
0.593155
0.380431
0.60027
0.460604
0.586159
0.559264
0.500714
0.644823
0.322888
0.645748
0.153322
0.584074
0.0620514
0.60761
-0.0184601
0.627748
-0.105848
0.556746
-0.181512
0.384632
-0.231943
0.114413
-0.241485
-0.25798
-0.207295
-0.636782
-0.145697
-0.882529
-0.0632462
-0.912868
0.00150685
-0.529033
-0.0258792
0.0479037
-0.141927
0.514513
-0.254416
0.825109
-0.315993
0.878283
-0.379051
0.767452
-0.452698
0.634061
-0.519752
0.494619
-0.566996
0.330889
-0.588385
0.135541
-0.575004
-0.0936206
-0.524875
-0.346558
-0.434294
-0.641315
-0.307765
-1.11345
-0.143851
-1.79581
-0.505338
-0.0868948
-0.48315
-0.110461
-0.452863
-0.166159
-0.419555
-0.201949
-0.382492
-0.240242
-0.341102
-0.281709
-0.298051
-0.309465
-0.256421
-0.316497
-0.21706
-0.314358
-0.179786
-0.308532
-0.145471
-0.293718
-0.113808
-0.277051
-0.0838615
-0.262531
-0.0553757
-0.248065
-0.0277666
-0.234963
-0.000759036
-0.223882
0.0258189
-0.213851
0.0521437
-0.205083
0.0783876
-0.197826
0.104513
-0.192065
0.130521
-0.187717
0.156459
-0.184426
0.182397
-0.181673
0.208103
-0.177215
0.233162
-0.17036
0.257389
-0.163273
0.280743
-0.156417
0.303271
-0.149987
0.324958
-0.144035
0.346102
-0.138465
0.36668
-0.13446
0.386902
-0.131936
0.40714
-0.131487
0.427757
-0.134183
0.449562
-0.141532
0.47366
-0.15756
0.501426
-0.185339
0.53703
-0.278262
0.586352
-0.409566
-0.539002
0.558608
-0.0781604
0.576299
-0.0537758
0.592793
-0.0129332
0.605025
0.0336807
0.61442
0.0817441
0.620285
0.141363
0.62327
0.196372
0.622728
0.256689
0.619039
0.321591
0.614762
0.38468
0.615919
0.459426
0.620066
0.555105
0.592537
0.672346
0.478295
0.759991
0.306044
0.756327
0.177746
0.735919
0.0844694
0.721035
-0.00705471
0.648278
-0.0919145
0.469489
-0.15574
0.178249
-0.18438
-0.229333
-0.174701
-0.646423
-0.140984
-0.916138
-0.0845295
-0.96905
-0.0358779
-0.576741
-0.0799104
0.0935307
-0.190512
0.625914
-0.27626
0.911301
-0.33213
0.935155
-0.401787
0.836572
-0.480094
0.712193
-0.550109
0.564237
-0.599566
0.382192
-0.622216
0.158778
-0.608995
-0.10459
-0.557827
-0.397349
-0.465873
-0.732701
-0.340849
-1.23981
-0.193692
-1.9448
-0.517306
-0.108629
-0.492776
-0.134916
-0.459671
-0.199303
-0.423806
-0.2378
-0.383751
-0.28031
-0.339478
-0.326037
-0.293499
-0.355467
-0.249819
-0.360197
-0.208799
-0.355401
-0.170322
-0.347034
-0.135453
-0.32861
-0.103584
-0.308946
-0.0737543
-0.292382
-0.0456121
-0.276233
-0.0184961
-0.262101
0.00813606
-0.250544
0.0343539
-0.240093
0.0606003
-0.231361
0.0869077
-0.224153
0.113305
-0.218493
0.139777
-0.2142
0.166375
-0.211046
0.193087
-0.208375
0.219736
-0.203865
0.245832
-0.19641
0.271102
-0.188513
0.295551
-0.180789
0.319164
-0.173553
0.341983
-0.166776
0.364233
-0.160642
0.385915
-0.15602
0.407257
-0.153265
0.428593
-0.152725
0.450334
-0.155973
0.473323
-0.164388
0.4986
-0.183
0.527587
-0.215104
0.5638
-0.315197
0.612295
-0.460353
-0.554759
0.576783
-0.100209
0.596669
-0.0737374
0.615814
-0.0320758
0.629834
0.0196129
0.64074
0.0709614
0.648271
0.133795
0.652523
0.192103
0.653627
0.255604
0.65158
0.323601
0.646454
0.389774
0.641499
0.464357
0.644481
0.552111
0.647524
0.669297
0.602168
0.805343
0.475489
0.883003
0.329173
0.882233
0.211761
0.838442
0.111912
0.748123
0.0200843
0.561311
-0.0557036
0.254051
-0.105944
-0.179062
-0.124133
-0.628222
-0.123069
-0.917286
-0.0995238
-0.992749
-0.0740447
-0.603
-0.131366
0.149865
-0.227099
0.721
-0.29334
0.977201
-0.350669
0.992713
-0.426932
0.91302
-0.509229
0.794506
-0.581944
0.636226
-0.633521
0.432436
-0.657425
0.180173
-0.64447
-0.118887
-0.592539
-0.449984
-0.499672
-0.825296
-0.375627
-1.36307
-0.239998
-2.07647
-0.531102
-0.132223
-0.504282
-0.16175
-0.468007
-0.235514
-0.428991
-0.276862
-0.38616
-0.323176
-0.338495
-0.373691
-0.289714
-0.404283
-0.243489
-0.406448
-0.200577
-0.398346
-0.160536
-0.387105
-0.124772
-0.364408
-0.0925569
-0.34119
-0.062638
-0.322331
-0.034601
-0.304295
-0.00782168
-0.288912
0.018374
-0.276767
0.0443903
-0.266146
0.0704106
-0.257413
0.0967081
-0.250496
0.123292
-0.245117
0.150153
-0.241119
0.17731
-0.238249
0.204785
-0.235903
0.232342
-0.23144
0.259409
-0.223489
0.28575
-0.214804
0.311271
-0.206265
0.336021
-0.198219
0.359968
-0.190726
0.383351
-0.183918
0.406199
-0.178749
0.428674
-0.175627
0.451177
-0.175126
0.4741
-0.178765
0.498279
-0.188287
0.524738
-0.208901
0.555021
-0.244746
0.591855
-0.351232
0.639428
-0.504695
-0.572523
0.596666
-0.124422
0.618682
-0.095758
0.640266
-0.0536967
0.656668
0.00328565
0.669508
0.0580426
0.678732
0.12465
0.684003
0.186848
0.686568
0.252982
0.686291
0.323854
0.683263
0.392773
0.677421
0.470179
0.674593
0.554927
0.683718
0.660171
0.685486
0.803577
0.627869
0.940627
0.508086
1.00202
0.375723
0.970817
0.259567
0.864284
0.156821
0.664068
0.0695761
0.341303
-0.00344453
-0.105992
-0.0539268
-0.57772
-0.0899638
-0.881167
-0.105836
-0.97679
-0.105464
-0.602703
-0.172828
0.218301
-0.252165
0.801045
-0.308238
1.03388
-0.371256
1.05691
-0.453634
0.995507
-0.539483
0.880292
-0.614757
0.711331
-0.668293
0.487387
-0.693354
0.206165
-0.680618
-0.129201
-0.628227
-0.50165
-0.534883
-0.91774
-0.411734
-1.48755
-0.283406
-2.20676
-0.546315
-0.158429
-0.517206
-0.190801
-0.477729
-0.275039
-0.435558
-0.31901
-0.389301
-0.369439
-0.338441
-0.424617
-0.286365
-0.456371
-0.237412
-0.455422
-0.192159
-0.443619
-0.150572
-0.428718
-0.113584
-0.401423
-0.0806388
-0.374162
-0.0503688
-0.352627
-0.0224367
-0.332251
0.00412974
-0.315503
0.0301219
-0.302783
0.0558077
-0.291855
0.0816963
-0.283324
0.107898
-0.27672
0.134575
-0.271813
0.16172
-0.268284
0.18937
-0.265909
0.217568
-0.264115
0.245978
-0.25984
0.27403
-0.251543
0.301404
-0.242137
0.32803
-0.23288
0.353905
-0.22403
0.379023
-0.215814
0.403566
-0.208375
0.427576
-0.202687
0.451271
-0.199248
0.474962
-0.198801
0.499106
-0.20294
0.524521
-0.213642
0.552237
-0.236811
0.583766
-0.277132
0.62117
-0.389217
0.667819
-0.553839
-0.591518
0.618313
-0.151229
0.642711
-0.120223
0.666918
-0.0778931
0.685135
-0.0149762
0.699959
0.0433598
0.710945
0.113611
0.718072
0.179702
0.721781
0.249289
0.722793
0.322799
0.721753
0.393778
0.718445
0.473464
0.714501
0.558859
0.719045
0.655623
0.737522
0.785098
0.738448
0.9397
0.680221
1.06025
0.569443
1.08159
0.444667
0.989057
0.327208
0.781524
0.222668
0.445849
0.123788
-0.00709588
0.0360299
-0.489955
-0.0410038
-0.804196
-0.100023
-0.917903
-0.123696
-0.579793
-0.199889
0.293713
-0.267613
0.868165
-0.322304
1.08818
-0.393172
1.1278
-0.481184
1.08363
-0.570355
0.96946
-0.648002
0.788556
-0.703439
0.541811
-0.729547
0.229869
-0.716966
-0.143297
-0.664144
-0.555251
-0.570723
-1.0108
-0.449016
-1.6085
-0.326343
-2.3256
-0.56303
-0.186899
-0.531258
-0.222597
-0.488554
-0.31768
-0.442995
-0.364624
-0.393352
-0.419116
-0.338942
-0.479006
-0.28329
-0.512059
-0.231444
-0.507302
-0.183791
-0.491301
-0.140132
-0.472412
-0.101643
-0.439944
-0.0677932
-0.408045
-0.0371764
-0.38327
-0.00896851
-0.360488
0.0175427
-0.342036
0.0432824
-0.328551
0.0687839
-0.317378
0.0944272
-0.308999
0.120551
-0.302871
0.147249
-0.298554
0.174603
-0.295675
0.202689
-0.294049
0.231527
-0.292993
0.260778
-0.289136
0.289771
-0.280551
0.318168
-0.270533
0.345875
-0.260556
0.372892
-0.251004
0.399163
-0.242063
0.424903
-0.234021
0.450136
-0.227744
0.475045
-0.223987
0.499998
-0.223581
0.525378
-0.228156
0.552084
-0.24004
0.581051
-0.265223
0.613813
-0.309219
0.651908
-0.42623
0.697691
-0.596903
-0.612398
0.64134
-0.180236
0.668285
-0.147133
0.695198
-0.104827
0.715895
-0.0355832
0.7327
0.0264566
0.745477
0.10092
0.754162
0.17102
0.759394
0.243983
0.761489
0.320674
0.761976
0.393261
0.760962
0.474458
0.758942
0.56087
0.76063
0.653933
0.777702
0.76803
0.806303
0.911104
0.809348
1.05722
0.755236
1.13572
0.653363
1.09095
0.53117
0.903731
0.405522
0.57153
0.275488
0.122989
0.145066
-0.359466
0.0237466
-0.682851
-0.0805964
-0.813572
-0.127769
-0.532439
-0.212128
0.37868
-0.275719
0.932189
-0.335832
1.14896
-0.41556
1.20867
-0.508955
1.17749
-0.601409
1.06212
-0.681449
0.868414
-0.738576
0.600239
-0.765504
0.257396
-0.752897
-0.153136
-0.69961
-0.607539
-0.606441
-1.10269
-0.486876
-1.72924
-0.369783
-2.44467
-0.58099
-0.218339
-0.546908
-0.256649
-0.500579
-0.364085
-0.451592
-0.413581
-0.3981
-0.472619
-0.339733
-0.537444
-0.280621
-0.571188
-0.225451
-0.562486
-0.175126
-0.541649
-0.129233
-0.518325
-0.0891764
-0.480027
-0.0542472
-0.442997
-0.0227854
-0.414757
0.00569673
-0.38899
0.0323523
-0.368715
0.0580458
-0.354261
0.0833341
-0.342689
0.108733
-0.334414
0.134689
-0.32885
0.161409
-0.32529
0.188936
-0.323222
0.217406
-0.322532
0.246788
-0.32239
0.276823
-0.319176
0.306743
-0.31048
0.336141
-0.299921
0.364919
-0.289342
0.393051
-0.279119
0.42052
-0.26953
0.447465
-0.260922
0.473946
-0.25414
0.500135
-0.250152
0.526359
-0.249753
0.553051
-0.254953
0.58106
-0.268015
0.611343
-0.295768
0.645355
-0.34411
0.683985
-0.465417
0.728889
-0.644138
-0.634465
0.666104
-0.211882
0.695646
-0.176734
0.725491
-0.134632
0.748425
-0.0585631
0.76732
0.00771385
0.781953
0.0862106
0.792327
0.16061
0.79882
0.237507
0.802317
0.317128
0.803924
0.391619
0.804693
0.473665
0.80512
0.560431
0.807072
0.651977
0.818491
0.756608
0.849097
0.880498
0.886131
1.02018
0.891489
1.13036
0.841373
1.14106
0.741366
1.00374
0.607181
0.705718
0.446998
0.283184
0.269573
-0.182068
0.100246
-0.513602
-0.0473843
-0.666169
-0.119119
-0.461486
-0.21151
0.470613
-0.278412
0.998625
-0.348692
1.21886
-0.437745
1.2976
-0.536472
1.27624
-0.632295
1.15787
-0.714751
0.950741
-0.773574
0.6585
-0.80118
0.282966
-0.788279
-0.167531
-0.734268
-0.662503
-0.641384
-1.19515
-0.52467
-1.84524
-0.412992
-2.55284
-0.600726
-0.252079
-0.563411
-0.29401
-0.513571
-0.413866
-0.460773
-0.466448
-0.403597
-0.52983
-0.341226
-0.599783
-0.277946
-0.634506
-0.219438
-0.621023
-0.166047
-0.59507
-0.117778
-0.566623
-0.0758105
-0.522024
-0.039583
-0.479251
-0.0073002
-0.447066
0.0217236
-0.418035
0.0484929
-0.395506
0.0741933
-0.379978
0.099396
-0.367914
0.124666
-0.359703
0.150491
-0.354704
0.177146
-0.351971
0.204799
-0.350917
0.233539
-0.35131
0.26348
-0.352384
0.294259
-0.349995
0.325044
-0.341311
0.355412
-0.330303
0.385246
-0.319196
0.414517
-0.308373
0.443174
-0.298189
0.471342
-0.288993
0.499082
-0.281712
0.526558
-0.277392
0.554107
-0.277068
0.582137
-0.282743
0.61149
-0.29703
0.643082
-0.326806
0.678315
-0.378663
0.717651
-0.503528
0.76163
-0.685805
-0.658003
0.692598
-0.246514
0.724757
-0.208828
0.757607
-0.167494
0.782855
-0.0837266
0.803855
-0.0134027
0.82078
0.0693772
0.832562
0.148834
0.84055
0.229435
0.845545
0.312107
0.848262
0.38887
0.849864
0.472041
0.851822
0.558462
0.85484
0.648955
0.863149
0.7483
0.886306
0.857345
0.927893
0.978603
0.966982
1.09129
0.968727
1.13934
0.910964
1.06153
0.792113
0.824601
0.617485
0.457869
0.399968
0.0355092
0.184294
-0.297903
-0.00415746
-0.477852
-0.0999801
-0.365741
-0.200888
0.571692
-0.277082
1.0751
-0.360364
1.30267
-0.459016
1.39715
-0.563295
1.38123
-0.662794
1.2577
-0.74787
1.03583
-0.808451
0.719819
-0.836513
0.311414
-0.822906
-0.178851
-0.76779
-0.71625
-0.675059
-1.28635
-0.561584
-1.95973
-0.455271
-2.66116
-0.621472
-0.288644
-0.581597
-0.333862
-0.527677
-0.467876
-0.470996
-0.523092
-0.409679
-0.591153
-0.342893
-0.666648
-0.27555
-0.701853
-0.213171
-0.683418
-0.156807
-0.651446
-0.105784
-0.617665
-0.0618622
-0.56596
-0.0240835
-0.51705
0.00933418
-0.480499
0.0389607
-0.447682
0.0661839
-0.422741
0.0919513
-0.405766
0.117122
-0.393097
0.142312
-0.384916
0.16801
-0.380417
0.194602
-0.378587
0.222292
-0.378623
0.25129
-0.380333
0.281697
-0.382803
0.313198
-0.381518
0.344826
-0.372949
0.376131
-0.361628
0.407001
-0.350084
0.437369
-0.338772
0.46722
-0.328053
0.496606
-0.31838
0.525634
-0.310696
0.554452
-0.306172
0.583331
-0.305954
0.612752
-0.31224
0.64349
-0.327851
0.676408
-0.360008
0.712846
-0.415997
0.752775
-0.544063
0.795834
-0.731037
-0.683269
0.720817
-0.284052
0.755654
-0.243717
0.791568
-0.20337
0.819139
-0.111342
0.842768
-0.0368665
0.861637
0.0504182
0.875129
0.135306
0.884571
0.220018
0.890613
0.306014
0.894174
0.385272
0.896418
0.469771
0.898855
0.556011
0.902957
0.644844
0.909849
0.741405
0.9254
0.841791
0.957111
0.946895
1.00044
1.04796
1.02974
1.11005
1.01153
1.07974
0.923021
0.913126
0.759531
0.62135
0.525498
0.269495
0.271949
-0.0445233
0.0416609
-0.247979
-0.0775657
-0.247441
-0.182783
0.676634
-0.272551
1.16452
-0.370379
1.40016
-0.478865
1.50545
-0.589157
1.49141
-0.692799
1.36126
-0.780873
1.1239
-0.843339
0.782183
-0.871792
0.338448
-0.857094
-0.194794
-0.800205
-0.77414
-0.707116
-1.37904
-0.596993
-2.06916
-0.496346
-2.75875
-0.643611
-0.328294
-0.600602
-0.376919
-0.542676
-0.525733
-0.481884
-0.583957
-0.416266
-0.656798
-0.344858
-0.738014
-0.273041
-0.773709
-0.206767
-0.749726
-0.146934
-0.711304
-0.0930431
-0.671582
-0.0468369
-0.612189
-0.00739132
-0.556518
0.0271054
-0.515015
0.0576875
-0.478281
0.085251
-0.45032
0.111394
-0.431925
0.136531
-0.41825
0.161682
-0.410086
0.18727
-0.406025
0.213804
-0.40515
0.241577
-0.406425
0.270765
-0.409566
0.301614
-0.413695
0.333715
-0.413678
0.366183
-0.405463
0.398386
-0.393885
0.430264
-0.381995
0.461728
-0.370276
0.49276
-0.359084
0.523395
-0.34897
0.553718
-0.340856
0.583853
-0.33608
0.614139
-0.335936
0.64495
-0.342748
0.677094
-0.359593
0.711358
-0.393734
0.748973
-0.452932
0.789538
-0.583355
0.83184
-0.771363
-0.709827
0.750249
-0.324483
0.788177
-0.281566
0.827432
-0.242634
0.857647
-0.141466
0.883632
-0.0629789
0.904504
0.0296466
0.919856
0.119958
0.930741
0.209044
0.937695
0.299031
0.942068
0.380869
0.94505
0.466767
0.947315
0.553733
0.950857
0.641296
0.956693
0.735564
0.967054
0.831431
0.987137
0.926815
1.01869
1.01641
1.04965
1.0791
1.05054
1.07888
0.989836
0.973858
0.850255
0.760968
0.631511
0.488271
0.359054
0.227893
0.108217
0.00263584
-0.0466349
-0.0927321
-0.158762
0.788777
-0.265123
1.27102
-0.378226
1.51361
-0.496893
1.62478
-0.613849
1.60905
-0.722352
1.47012
-0.813953
1.21565
-0.878614
0.847167
-0.907426
0.366997
-0.89114
-0.209454
-0.831572
-0.83264
-0.737257
-1.47154
-0.630182
-2.17713
-0.536483
-2.85447
-0.66711
-0.371039
-0.62092
-0.42308
-0.558758
-0.58799
-0.493446
-0.649222
-0.423357
-0.726897
-0.347208
-0.814247
-0.270449
-0.850477
-0.200122
-0.820058
-0.136561
-0.774877
-0.0796538
-0.728495
-0.0310433
-0.660812
0.0102099
-0.59778
0.0462604
-0.551081
0.0776757
-0.509706
0.105971
-0.478633
0.132379
-0.458344
0.157751
-0.443642
0.182859
-0.435208
0.208413
-0.431604
0.234882
-0.431635
0.262635
-0.434206
0.292032
-0.438982
0.323278
-0.444969
0.356072
-0.44649
0.389242
-0.43866
0.422328
-0.426993
0.455177
-0.414885
0.48773
-0.402868
0.519914
-0.391308
0.551789
-0.380865
0.583407
-0.37248
0.614924
-0.367587
0.646593
-0.367612
0.678821
-0.375099
0.712403
-0.393287
0.748007
-0.429699
0.786797
-0.492608
0.827984
-0.625147
0.869353
-0.814564
-0.738133
0.781805
-0.36813
0.822902
-0.32272
0.865227
-0.284906
0.898475
-0.174757
0.926599
-0.0909419
0.949922
0.00622071
0.966832
0.103008
0.979119
0.196779
0.987202
0.290901
0.992341
0.375697
0.995092
0.463992
0.997243
0.551566
0.999455
0.639075
1.00335
0.731665
1.01001
0.824763
1.02075
0.916077
1.03791
0.99925
1.05637
1.06065
1.05729
1.07796
1.01125
1.0199
0.895964
0.876249
0.706935
0.677233
0.458149
0.476509
0.212449
0.247941
0.00370817
0.115479
-0.129536
0.921752
-0.254833
1.39604
-0.383514
1.642
-0.512918
1.75394
-0.637459
1.73341
-0.751682
1.58417
-0.847434
1.31147
-0.914655
0.914474
-0.943845
0.395526
-0.925396
-0.228767
-0.862274
-0.896556
-0.76553
-1.56792
-0.660532
-2.2815
-0.574641
-2.93777
-0.692172
-0.416989
-0.642552
-0.472745
-0.575695
-0.654772
-0.505928
-0.719069
-0.430897
-0.801956
-0.349623
-0.895471
-0.268051
-0.932088
-0.193009
-0.895128
-0.125694
-0.842215
-0.0654102
-0.788798
-0.0141573
-0.712084
0.0291929
-0.641147
0.0667266
-0.58863
0.0993135
-0.542308
0.128297
-0.50763
0.155173
-0.485235
0.180804
-0.469288
0.205969
-0.460389
0.231474
-0.45713
0.257943
-0.458125
0.285748
-0.462045
0.315274
-0.468542
0.346881
-0.476628
0.380237
-0.479896
0.414165
-0.472656
0.448089
-0.460971
0.481873
-0.44874
0.515459
-0.436497
0.548803
-0.424695
0.581896
-0.413923
0.614825
-0.405315
0.647688
-0.400223
0.68079
-0.400422
0.714491
-0.40842
0.749466
-0.427832
0.786473
-0.466145
0.826359
-0.53186
0.868269
-0.665793
0.908948
-0.853538
-0.767939
0.814982
-0.415182
0.859146
-0.366797
0.905401
-0.331168
0.941044
-0.210324
0.972032
-0.122059
0.997536
-0.0191795
1.01655
0.0839929
1.0299
0.183345
1.03897
0.281816
1.04446
0.370174
1.04757
0.460864
1.04885
0.550279
1.04996
0.637946
1.05128
0.730341
1.05388
0.822161
1.05775
0.912208
1.06276
0.994235
1.06593
1.05749
1.05625
1.08765
1.01257
1.06361
0.913854
0.974974
0.751256
0.83983
0.536423
0.691291
0.299456
0.484832
0.0581359
0.356769
-0.0964506
1.0763
-0.241687
1.54131
-0.38605
1.78656
-0.526807
1.89512
-0.660004
1.8671
-0.780877
1.70547
-0.881418
1.41211
-0.951445
0.984571
-0.980964
0.424172
-0.95996
-0.249232
-0.892421
-0.963655
-0.791988
-1.66673
-0.68751
-2.38687
-0.609095
-3.01827
-0.7186
-0.466353
-0.665325
-0.525991
-0.593689
-0.726509
-0.51919
-0.793511
-0.43902
-0.882131
-0.352341
-0.982236
-0.265333
-1.01909
-0.18567
-0.974796
-0.114209
-0.913677
-0.0504275
-0.852585
0.00371213
-0.766227
0.0492926
-0.686739
0.0885043
-0.627849
0.122376
-0.576194
0.152292
-0.537554
0.179738
-0.512699
0.205689
-0.495251
0.231046
-0.485769
0.256599
-0.482699
0.283049
-0.484604
0.310906
-0.489922
0.34064
-0.498308
0.372606
-0.508616
0.406432
-0.513753
0.441092
-0.507338
0.475799
-0.495714
0.510512
-0.483487
0.545112
-0.471149
0.57956
-0.459178
0.613891
-0.448302
0.648103
-0.439548
0.682343
-0.434498
0.716839
-0.43494
0.751995
-0.443708
0.78845
-0.464455
0.826787
-0.5049
0.867808
-0.57373
0.91034
-0.708969
0.950296
-0.895122
-0.799526
0.849991
-0.465632
0.897512
-0.414374
0.947424
-0.381039
0.986306
-0.249246
1.01978
-0.155379
1.04792
-0.0474193
1.0684
0.063479
1.08336
0.168413
1.0933
0.271829
1.0994
0.364046
1.1022
0.458044
1.10299
0.549469
1.10237
0.638564
1.10101
0.731683
1.09932
0.823851
1.09718
0.91434
1.09279
0.998617
1.08315
1.06713
1.06105
1.10975
1.01225
1.11241
0.920798
1.0664
0.776855
0.983711
0.58627
0.881747
0.364119
0.706789
0.112141
0.608456
-0.0611798
1.24938
-0.225786
1.70566
-0.385781
1.94628
-0.538742
2.04782
-0.68168
2.00977