/*--------------------------------*- C++ -*----------------------------------*\
| =========                 |                                                 |
| \\      /  F ield         | OpenFOAM: The Open Source CFD Toolbox           |
|  \\    /   O peration     | Version:  v1806                                 |
|   \\  /    A nd           | Web:      www.OpenFOAM.com                      |
|    \\/     M anipulation  |                                                 |
\*---------------------------------------------------------------------------*/
FoamFile
{
    version     2.0;
    format      ascii;
    class       volVectorField;
    location    "50";
    object      U;
}
// * * * * * * * * * * * * * * * * * * * * * * * * * * * * * * * * * * * * * //

dimensions      [0 1 -1 0 0 0 0];


internalField   nonuniform List<vector> 
10720
(
(-12.2313 53.2558 6.56108e-17)
(-9.54935 50.9163 -6.91804e-17)
(-6.79378 46.6144 0)
(-4.21978 39.535 -6.51832e-16)
(-2.10361 29.9611 8.87577e-16)
(-0.550629 18.2842 6.7906e-16)
(0.356763 5.92606 1.34369e-15)
(-0.577225 -3.09995 0)
(-4.1823 -5.31414 0)
(-6.50237 -6.2818 0)
(-6.8682 -6.84397 -2.20605e-17)
(-5.15339 -6.88492 0)
(-1.55109 -6.04824 7.68864e-15)
(1.91267 -3.93551 0)
(3.78238 0.208722 0)
(3.34809 2.24379 0)
(-8.65996 -0.436666 -6.88594e-15)
(-23.4575 -4.85897 -8.91637e-15)
(-35.0281 -8.08799 8.90318e-15)
(-39.1661 -8.55198 0)
(-34.4489 -6.8935 7.45194e-15)
(-23.894 -4.90053 -1.09275e-14)
(-10.2439 -3.49791 4.14008e-15)
(3.61781 -2.73307 -1.25934e-16)
(13.9218 -0.754501 0)
(15.7424 0.517395 2.761e-15)
(9.84743 0.544422 5.98635e-17)
(5.95064 -0.175208 -2.82746e-15)
(10.4451 -0.223259 -1.01975e-14)
(0.850078 0.882705 -2.84954e-14)
(-17.6448 2.50796 1.14729e-14)
(-31.6236 4.17467 2.55116e-14)
(-40.8741 5.73903 2.79066e-14)
(-45.9365 6.95938 1.19554e-13)
(-47.0139 7.63899 -5.96667e-14)
(-44.534 7.60918 -4.53399e-16)
(-38.3418 6.50349 3.0972e-16)
(-27.6014 3.8161 1.37964e-13)
(-13.3164 2.05723 -1.79561e-13)
(-14.9725 54.4509 3.35482e-17)
(-17.7857 54.176 6.77898e-17)
(-20.8699 52.949 -1.27602e-16)
(-23.7532 49.7743 1.33223e-16)
(-26.2857 45.6596 4.27818e-16)
(-27.9676 40.4988 -2.71889e-16)
(-28.5211 34.6305 -2.51039e-16)
(-27.8135 28.5705 2.41782e-16)
(-26.0168 22.8623 0)
(-23.4114 17.7837 0)
(-20.2486 13.4668 1.29974e-15)
(-16.8385 9.96891 9.95273e-16)
(-13.3987 7.20566 -2.60938e-15)
(-10.0407 5.05723 3.64276e-15)
(-6.8344 3.40812 1.06008e-14)
(-3.80161 2.15697 1.22925e-14)
(-0.984048 1.22326 3.44962e-14)
(1.52342 0.429226 2.80737e-14)
(3.99766 -0.316759 0)
(6.44727 -0.897244 0)
(8.7786 -1.31983 -1.94554e-14)
(11.0194 -1.616 -9.50029e-16)
(13.2114 -1.79516 1.34713e-14)
(15.3543 -1.8374 -1.05422e-14)
(17.402 -1.73351 1.24527e-17)
(19.3305 -1.50881 0)
(21.1478 -1.18444 3.22684e-15)
(22.8619 -0.777656 0)
(24.4721 -0.301727 0)
(25.9901 0.227101 2.00834e-15)
(27.4332 0.799161 0)
(28.8095 1.40144 -5.65737e-15)
(30.1452 2.0258 -8.97501e-15)
(31.475 2.66776 -3.50441e-14)
(32.8558 3.33537 1.01362e-14)
(34.3297 4.03946 -3.08312e-17)
(36.1566 4.84873 0)
(38.0816 5.80981 -5.19584e-15)
(43.3018 7.01585 -1.59072e-14)
(2.51608 56.2177 2.22067e-17)
(4.18415 57.36 -2.76086e-17)
(5.24632 58.1777 0)
(5.72416 58.1107 0)
(5.77814 56.3896 -1.19809e-16)
(5.68341 51.6837 -2.43148e-16)
(5.56459 42.7052 0)
(4.86981 29.7501 0)
(2.51981 14.5446 1.29086e-15)
(-1.4244 1.15377 0)
(-4.92386 -3.49506 9.83858e-15)
(-4.18497 -5.87065 0)
(-1.54971 -7.86791 1.98549e-15)
(-0.0971928 -6.10093 -2.46332e-15)
(-0.353041 0.564913 5.66697e-15)
(-9.50296 2.02756 -4.81948e-15)
(-23.604 -1.72847 3.36005e-15)
(-33.0259 -6.51172 4.16555e-15)
(-37.3033 -9.47465 5.6866e-15)
(-37.5437 -9.8475 3.94823e-16)
(-33.6905 -8.7066 -5.67946e-15)
(-23.598 -7.20281 3.58882e-15)
(-10.0323 -6.23768 -1.85546e-16)
(3.48751 -5.01888 0)
(12.285 -1.60534 0)
(16.325 0.974833 0)
(13.2043 1.24705 2.28901e-16)
(10.382 0.145792 -7.53721e-17)
(6.88062 1.35756 3.14834e-15)
(-14.2743 3.96167 -4.10785e-17)
(-31.8647 4.93652 3.74138e-17)
(-41.0812 5.5328 -1.29271e-16)
(-45.759 6.17338 2.0519e-14)
(-47.6263 6.77003 -4.74628e-14)
(-47.3321 7.21511 -3.6105e-16)
(-44.5652 7.3102 -8.28589e-14)
(-38.0296 6.50959 0)
(-27.303 3.8226 -3.64441e-14)
(-13.5215 0.824583 -7.23991e-14)
(0.460583 54.7601 -3.07194e-17)
(-2.24912 53.3008 5.31658e-17)
(-5.52144 51.3082 3.70921e-16)
(-9.12409 48.8432 -5.12318e-16)
(-12.5753 45.4483 0)
(-15.6039 41.2242 1.13251e-17)
(-17.8511 36.2646 -9.96316e-17)
(-19.0251 30.934 -8.97873e-16)
(-19.0753 25.633 4.32731e-16)
(-18.143 20.652 -9.30211e-16)
(-16.4167 16.2212 1.69945e-15)
(-14.1396 12.4608 -7.41669e-16)
(-11.5431 9.36656 0)
(-8.80143 6.87879 -1.39079e-15)
(-6.03485 4.91209 -7.43167e-17)
(-3.31429 3.38223 -7.39414e-15)
(-0.69672 2.21703 0)
(1.76216 1.24687 0)
(4.1822 0.415754 -1.36971e-15)
(6.56349 -0.185033 1.09339e-15)
(8.85722 -0.614839 -1.32221e-14)
(11.0865 -0.912661 -1.46614e-15)
(13.282 -1.07999 6.31564e-16)
(15.4421 -1.0909 8.44544e-15)
(17.5274 -0.946599 -7.46216e-15)
(19.5107 -0.689818 -6.05052e-15)
(21.3943 -0.344987 0)
(23.1833 0.0719489 0)
(24.8752 0.549809 0)
(26.4813 1.07079 7.76329e-18)
(28.0151 1.62821 0)
(29.4843 2.20866 0)
(30.9129 2.80654 1.53133e-14)
(32.3342 3.4216 1.18472e-14)
(33.8021 4.06925 -8.51769e-15)
(35.3541 4.76948 5.2697e-15)
(37.2636 5.59839 -3.67525e-15)
(39.1735 6.62139 4.0287e-15)
(44.5541 8.29524 1.14851e-14)
(-2.98423 50.2939 7.56374e-18)
(-1.15002 51.0095 1.45058e-16)
(0.852291 52.0058 -1.07816e-16)
(2.75029 53.5409 -8.99146e-17)
(4.32462 55.514 -1.96732e-16)
(5.72705 57.2709 5.64692e-16)
(7.0614 56.8637 -3.70867e-16)
(8.02553 51.988 -3.98637e-16)
(7.80677 41.1306 5.87155e-18)
(5.65517 25.5204 -7.49071e-16)
(1.40078 9.89665 1.27303e-15)
(-1.14266 -0.62989 -4.62926e-15)
(-0.278724 -6.77501 -1.65405e-15)
(-2.05436 -6.93308 0)
(-7.68043 0.836634 -2.59407e-15)
(-18.8805 3.34974 2.79039e-15)
(-27.7555 0.749148 0)
(-31.81 -3.86504 -6.87297e-15)
(-35.0725 -7.80857 -4.73835e-15)
(-36.386 -9.91444 6.5207e-16)
(-32.6394 -10.4815 -5.66599e-16)
(-23.265 -10.2885 -1.31931e-16)
(-10.4735 -9.78181 -1.46533e-15)
(2.2184 -7.93529 6.26223e-16)
(10.4399 -3.04183 0)
(13.8776 0.881902 1.25455e-15)
(12.6453 1.71445 -1.72121e-16)
(9.68238 1.2486 0)
(-3.53934 4.30589 1.7826e-15)
(-23.8556 6.61862 3.28341e-15)
(-34.4257 6.25781 -9.88786e-15)
(-40.0281 6.03398 -1.44078e-14)
(-44.1636 6.35986 -2.60414e-16)
(-46.6296 6.79051 -4.4712e-14)
(-46.7168 6.98803 -4.32725e-14)
(-43.913 6.76214 7.01909e-14)
(-37.4801 5.7209 0)
(-27.1338 2.86631 -2.60297e-14)
(-14.3358 -0.564347 8.96944e-14)
(-4.77094 49.5007 2.07082e-17)
(-6.50229 48.4252 3.61965e-17)
(-8.40647 46.7422 -2.15203e-16)
(-10.4105 44.4837 0)
(-12.2976 41.626 -1.67465e-17)
(-13.9539 38.1636 0)
(-15.2024 34.1781 3.68866e-16)
(-15.8597 29.8839 2.83399e-16)
(-15.8228 25.5212 4.84116e-16)
(-15.0997 21.2903 0)
(-13.7795 17.3718 -2.18165e-15)
(-11.9853 13.8957 -7.25896e-16)
(-9.85775 10.907 4.38811e-15)
(-7.52697 8.39953 0)
(-5.09859 6.33462 -4.23139e-15)
(-2.64632 4.6603 -1.78847e-15)
(-0.233577 3.32089 1.17428e-14)
(2.10214 2.22028 7.2665e-15)
(4.42292 1.31327 1.97101e-15)
(6.7173 0.622007 -8.51738e-16)
(8.94762 0.0992106 1.05123e-14)
(11.1275 -0.2859 0)
(13.2794 -0.535212 0)
(15.4021 -0.632763 5.24006e-19)
(17.4624 -0.582706 0)
(19.4345 -0.415594 1.12003e-14)
(21.3182 -0.150165 -1.56296e-16)
(23.1181 0.201013 -1.05418e-15)
(24.8324 0.626484 0)
(26.4729 1.10741 -1.57838e-15)
(28.0525 1.6398 2.699e-15)
(29.5794 2.20833 0)
(31.0769 2.80683 -7.37953e-15)
(32.5766 3.43465 0)
(34.131 4.10892 0)
(35.771 4.84909 6.09652e-17)
(37.7794 5.72916 -1.29259e-16)
(39.7149 6.85335 -3.99949e-15)
(44.9908 8.73263 -2.37506e-14)
(1.69261 47.9244 1.44824e-17)
(3.27755 48.6971 3.09565e-17)
(4.67123 49.3398 -6.60997e-17)
(5.87114 50.0122 -4.87736e-17)
(6.86913 51.0084 0)
(7.75845 52.8109 0)
(8.72766 55.2856 -6.12682e-16)
(9.86723 56.939 6.44248e-16)
(10.8379 54.8994 0)
(10.8381 46.471 -8.08185e-16)
(8.52163 31.4635 -1.1918e-15)
(4.63628 14.3334 -1.82078e-15)
(1.90622 0.0411813 3.19099e-15)
(-2.94039 -5.21257 3.05105e-15)
(-11.2002 2.30611 0)
(-21.1355 6.31057 1.60144e-15)
(-26.2311 4.27017 5.23994e-16)
(-29.2297 -0.777694 6.13348e-15)
(-33.0799 -5.6797 5.29885e-16)
(-34.6737 -9.34538 -5.75547e-16)
(-31.3761 -11.8351 4.03952e-15)
(-22.9591 -13.2033 -4.65798e-16)
(-11.2638 -13.3224 1.35549e-15)
(0.392573 -10.8515 5.62187e-16)
(8.30507 -4.45437 -4.85422e-17)
(11.507 0.677421 -9.84263e-16)
(11.0194 2.26311 8.41783e-18)
(5.00787 3.33234 -7.9063e-18)
(-13.1162 7.38493 -1.22547e-15)
(-27.0831 8.41965 -5.48813e-17)
(-33.2664 6.99121 4.6969e-15)
(-38.6089 6.47479 -1.37222e-14)
(-43.3174 6.65076 -1.66364e-14)
(-46.0857 6.88589 -3.10181e-16)
(-46.2441 6.84791 3.6592e-14)
(-43.464 6.38602 0)
(-37.153 5.10371 3.90531e-14)
(-27.2194 1.99683 2.01089e-14)
(-15.5032 -1.84254 -3.26636e-14)
(0.0104168 47.0302 2.01437e-18)
(-1.8398 45.9178 -4.83401e-17)
(-3.86886 44.4275 -9.11511e-17)
(-5.99873 42.4492 0)
(-8.01217 39.9494 1.61781e-17)
(-9.79371 36.9223 0)
(-11.1932 33.4316 -5.41047e-16)
(-12.0669 29.6577 3.49302e-17)
(-12.3394 25.7897 5.27459e-16)
(-12.0098 21.9837 8.43674e-16)
(-11.1357 18.3877 -1.17301e-17)
(-9.80091 15.1181 2.42169e-15)
(-8.10907 12.2282 -2.42196e-15)
(-6.16513 9.73276 9.36245e-16)
(-4.06201 7.62051 4.72287e-15)
(-1.87215 5.86213 7.33231e-15)
(0.336296 4.41642 -9.04737e-15)
(2.52653 3.20936 -4.09918e-17)
(4.72557 2.20619 0)
(6.92011 1.41676 1.07517e-14)
(9.07733 0.808088 5.74873e-16)
(11.2014 0.350946 -8.62512e-15)
(13.3065 0.0383312 0)
(15.3892 -0.12084 -3.86834e-18)
(17.4199 -0.129478 0)
(19.3726 -0.0124322 -4.84412e-15)
(21.2438 0.210259 0)
(23.036 0.524477 9.49027e-16)
(24.7475 0.917117 -3.77923e-17)
(26.3888 1.36892 2.33064e-17)
(27.9722 1.87677 -2.35173e-15)
(29.5066 2.42416 -6.84068e-17)
(31.0144 3.00523 0)
(32.5271 3.62009 5.24355e-15)
(34.0963 4.28713 7.00457e-17)
(35.7528 5.02712 -4.79428e-15)
(37.7732 5.9095 7.07394e-15)
(39.7195 7.09546 -1.79974e-20)
(44.6787 8.98164 0)
(1.19525 45.9494 1.43892e-17)
(2.44713 46.8015 2.72847e-17)
(3.84993 47.5724 -1.13765e-16)
(5.3223 48.2704 5.01219e-16)
(6.75127 48.8925 -1.24998e-16)
(8.11348 49.693 -2.51099e-16)
(9.3787 51.1691 2.95517e-16)
(10.6284 53.6287 0)
(11.9995 56.052 8.44257e-16)
(13.2861 55.3824 3.61647e-16)
(13.3097 47.9473 0)
(10.7732 32.9759 9.88395e-16)
(6.39113 14.4727 -6.95466e-16)
(-1.11377 0.831957 3.30585e-15)
(-10.6692 5.28165 0)
(-18.8286 10.1473 -1.98328e-15)
(-22.6106 8.03131 2.34866e-15)
(-26.043 2.56246 1.65927e-16)
(-30.2011 -3.16021 0)
(-32.0523 -8.35124 5.08754e-15)
(-29.4335 -12.7809 -3.62859e-15)
(-22.282 -15.7722 -1.08223e-16)
(-12.0384 -16.5998 -1.28563e-15)
(-1.67194 -13.7474 -8.40046e-16)
(5.94808 -5.9748 0)
(9.22964 0.455309 0)
(8.54277 3.12152 -2.458e-16)
(-1.92672 5.99724 -2.25328e-17)
(-18.8535 9.90279 1.05243e-15)
(-27.0792 9.47874 -5.03873e-17)
(-32.1179 7.60722 5.34793e-17)
(-37.9619 7.02711 1.18951e-14)
(-42.9296 7.01624 0)
(-45.7791 7.00005 7.05668e-14)
(-45.9872 6.70239 -2.47356e-16)
(-43.2534 6.00568 0)
(-37.0761 4.50175 1.34565e-16)
(-27.5501 1.18727 0)
(-16.9091 -2.96577 2.6446e-14)
(-0.0236759 44.9888 -1.09565e-17)
(-1.31373 43.8329 3.06167e-17)
(-2.74342 42.3261 6.63904e-18)
(-4.30024 40.4466 8.79226e-17)
(-5.81862 38.1852 -2.43669e-16)
(-7.2188 35.5064 -5.18852e-16)
(-8.37856 32.4448 5.74081e-16)
(-9.16322 29.1408 -8.57371e-16)
(-9.4906 25.7379 -6.48932e-16)
(-9.34025 22.3483 -8.35336e-16)
(-8.73664 19.0899 1.90748e-15)
(-7.72571 16.065 -2.3277e-15)
(-6.37388 13.3257 -1.4509e-15)
(-4.7573 10.8974 1.671e-15)
(-2.94987 8.78676 -5.20866e-15)
(-1.01326 6.98315 1.20205e-15)
(0.987932 5.46431 0)
(3.02 4.17626 -7.39614e-15)
(5.08778 3.09455 2.59081e-15)
(7.17436 2.2237 -1.02979e-14)
(9.24954 1.53777 0)
(11.3097 1.01069 7.08778e-15)
(13.3615 0.633527 5.85153e-15)
(15.3991 0.40991 -5.17563e-15)
(17.3951 0.33678 0)
(19.3239 0.394687 -4.35245e-15)
(21.1788 0.563038 0)
(22.9604 0.82868 0)
(24.6662 1.17804 0)
(26.3053 1.59366 1.29221e-15)
(27.8889 2.07162 0)
(29.4254 2.59561 0)
(30.9361 3.15941 -6.15276e-15)
(32.451 3.7633 -4.83155e-15)
(34.0207 4.42517 0)
(35.6765 5.16693 -4.48171e-15)
(37.6809 6.05456 1.2253e-16)
(39.627 7.29393 0)
(44.2309 9.19888 8.85028e-15)
(3.14772 44.1885 -1.77119e-17)
(4.3697 45.0977 1.35663e-17)
(5.57573 45.9794 0)
(6.7291 46.8313 -6.97084e-18)
(7.81537 47.6043 -2.87929e-16)
(8.9074 48.3173 2.45774e-16)
(10.0269 49.0691 2.83367e-17)
(11.1735 50.2888 -7.18147e-16)
(12.429 52.5233 -5.31741e-17)
(13.9138 55.0582 7.65559e-16)
(15.23 54.6742 -2.60128e-16)
(14.7945 47.0794 5.85456e-16)
(11.332 31.3214 3.84934e-16)
(3.26387 12.9116 5.64337e-16)
(-7.68938 9.57103 0)
(-14.4901 14.6064 -5.87134e-16)
(-18.0617 12.3374 -1.0646e-15)
(-21.9475 6.47517 -5.32848e-15)
(-26.184 -0.127965 2.31717e-15)
(-28.379 -6.82482 -3.24004e-15)
(-26.5217 -13.1652 -4.19237e-16)
(-20.8504 -17.8025 0)
(-12.3919 -19.4301 1.12482e-15)
(-3.6277 -16.5498 6.95351e-17)
(3.43022 -7.62476 -4.26526e-17)
(6.85937 0.301414 -9.12625e-16)
(4.85729 4.44086 1.77615e-16)
(-8.68477 8.82748 2.76619e-16)
(-21.2657 11.7032 -9.0836e-16)
(-26.3199 10.2259 -9.495e-17)
(-31.5839 8.33426 4.09621e-15)
(-37.71 7.68334 1.0652e-14)
(-42.7476 7.43891 0)
(-45.6438 7.15079 3.35569e-16)
(-45.9117 6.58176 -2.92803e-14)
(-43.2465 5.63946 0)
(-37.229 3.91917 -5.81474e-14)
(-28.1222 0.448232 0)
(-18.476 -3.86854 -2.27649e-14)
(1.94723 43.2191 1.15204e-17)
(0.700963 42.1018 5.56201e-18)
(-0.652406 40.6827 -4.89936e-18)
(-2.08559 38.9322 0)
(-3.46204 36.854 1.35061e-16)
(-4.73065 34.4198 1.02608e-15)
(-5.79908 31.6569 0)
(-6.55892 28.6891 -9.59461e-16)
(-6.94085 25.6344 -1.20285e-15)
(-6.92468 22.5756 1.44625e-15)
(-6.52188 19.6058 1.37154e-17)
(-5.75974 16.8106 1.05132e-15)
(-4.68124 14.234 -6.97284e-17)
(-3.3408 11.9021 4.61694e-15)
(-1.79514 9.83022 5.56954e-15)
(-0.0941964 8.0186 -6.65319e-15)
(1.70485 6.45831 1.25911e-15)
(3.57386 5.11302 -2.45574e-15)
(5.50472 3.96855 1.1076e-15)
(7.47655 3.02808 6.89237e-15)
(9.46133 2.27166 8.9e-16)
(11.45 1.67816 -7.7102e-16)
(13.4424 1.23834 -4.87317e-15)
(15.4302 0.952939 0)
(17.3872 0.818011 2.70217e-16)
(19.2879 0.818503 7.6615e-15)
(21.1231 0.934737 -5.31167e-17)
(22.8912 1.15417 5.04899e-17)
(24.5888 1.46276 0)
(26.2234 1.84388 -1.18768e-15)
(27.8053 2.29262 0)
(29.3422 2.79327 0)
(30.8542 3.3392 5.5862e-15)
(32.3698 3.93059 4.57911e-15)
(33.9382 4.5842 0)
(35.5911 5.32393 4.11613e-15)
(37.5759 6.21371 -6.34544e-15)
(39.5152 7.49681 1.84402e-18)
(43.7964 9.42593 -7.93242e-15)
(4.06228 42.8162 -5.53761e-18)
(5.08279 43.7658 7.06486e-18)
(6.16962 44.6918 -6.84577e-17)
(7.30041 45.5969 6.35896e-17)
(8.4064 46.4376 1.87847e-16)
(9.50974 47.251 0)
(10.6084 47.997 -3.92391e-16)
(11.7022 48.6948 1.90723e-17)
(12.806 49.7578 -2.69905e-16)
(14.0161 51.8313 -4.95207e-16)
(15.4642 54.2904 0)
(16.3724 53.5234 -9.66084e-16)
(14.9626 44.9838 -7.84869e-16)
(8.58172 28.1753 -2.31436e-15)
(-2.82126 16.9224 0)
(-9.52016 19.2295 -1.98567e-15)
(-12.8839 17.212 -2.39422e-15)
(-16.9398 10.9652 2.65169e-15)
(-21.1297 3.3959 -3.29401e-15)
(-23.6959 -4.7641 4.56646e-15)
(-22.5469 -12.8903 3.4835e-16)
(-18.4327 -19.1632 -2.49143e-15)
(-12.0364 -21.6772 0)
(-5.10831 -19.1111 -1.01352e-15)
(0.838747 -9.32836 8.22105e-17)
(4.26803 0.313594 1.0491e-15)
(0.0290421 6.22355 0)
(-13.6214 11.3711 -1.27897e-17)
(-21.8238 12.9364 4.47578e-17)
(-25.7841 10.9449 2.39154e-15)
(-31.4468 9.16783 -3.49113e-15)
(-37.6404 8.39814 -9.53774e-15)
(-42.6898 7.9014 1.23231e-14)
(-45.6258 7.33205 1.1486e-16)
(-45.9642 6.4804 2.67672e-14)
(-43.3913 5.28291 4.03072e-14)
(-37.5633 3.35245 2.65153e-14)
(-28.9043 -0.23712 -2.43515e-16)
(-20.2161 -4.60336 7.88199e-17)
(3.06326 41.8167 -9.74145e-19)
(2.02524 40.6989 4.72208e-17)
(0.887794 39.3123 9.00496e-17)
(-0.336073 37.6421 -1.24127e-16)
(-1.52212 35.7033 -6.77313e-16)
(-2.63254 33.4622 3.16008e-16)
(-3.58852 30.9376 7.57108e-16)
(-4.29413 28.2411 2.35312e-15)
(-4.68887 25.473 1.20935e-15)
(-4.75229 22.6938 -1.39834e-15)
(-4.48786 19.9787 -6.57153e-17)
(-3.91015 17.3987 -1.05971e-15)
(-3.04703 14.988 0)
(-1.93608 12.7693 -3.03247e-17)
(-0.618865 10.7611 -3.40037e-15)
(0.867097 8.96927 2.00622e-15)
(2.47423 7.3938 -2.1722e-15)
(4.18057 6.01325 0)
(5.97185 4.82292 3.8022e-15)
(7.82439 3.82543 -6.95093e-15)
(9.71227 3.00777 0)
(11.6226 2.35341 5.5931e-15)
(13.55 1.85445 0)
(15.4834 1.5091 -2.75253e-16)
(17.3972 1.31415 2.59757e-16)
(19.2658 1.25696 -3.52146e-15)
(21.0776 1.32092 -5.57755e-17)
(22.829 1.49271 -4.66584e-17)
(24.516 1.75914 1.89452e-17)
(26.1441 2.10353 -1.12513e-15)
(27.7226 2.52116 -1.90672e-15)
(29.2589 2.99662 3.13356e-15)
(30.7711 3.52334 8.98795e-17)
(32.2867 4.10084 2.48976e-17)
(33.8534 4.74509 0)
(35.5025 5.48243 4.41274e-17)
(37.4657 6.37672 2.94602e-15)
(39.3941 7.69949 4.19034e-17)
(43.3709 9.65416 -6.8248e-15)
(5.32869 41.5803 -4.51679e-19)
(6.29255 42.5346 -4.09519e-18)
(7.30544 43.4857 0)
(8.3352 44.4276 -3.17798e-17)
(9.32858 45.3128 1.16931e-16)
(10.3239 46.1922 0)
(11.3172 47.0471 -1.50566e-16)
(12.3102 47.8131 1.01082e-15)
(13.3019 48.4983 -1.23944e-15)
(14.2733 49.5144 3.83732e-16)
(15.3658 51.6062 4.19884e-16)
(16.5471 53.9538 1.29179e-15)
(16.8058 52.524 8.7717e-16)
(13.4035 42.1525 9.58666e-16)
(3.66121 28.1519 3.8092e-16)
(-4.07762 24.451 1.26631e-15)
(-7.36619 22.2868 2.21124e-15)
(-11.1881 15.9238 2.885e-15)
(-15.2159 7.38986 -2.58934e-15)
(-18.1352 -2.20553 -1.00147e-14)
(-17.5974 -11.9375 0)
(-14.9879 -19.7955 -1.51061e-16)
(-10.8344 -23.2726 1.39353e-15)
(-5.83398 -21.2675 9.72809e-16)
(-1.69399 -10.9311 -8.41407e-17)
(1.40806 0.622419 -1.01735e-15)
(-5.15393 8.33189 4.50643e-18)
(-16.5301 13.4053 -2.34399e-16)
(-21.688 13.8351 2.48952e-17)
(-25.599 11.7376 -4.47658e-15)
(-31.4996 10.0766 3.31496e-17)
(-37.6655 9.15332 -1.19729e-16)
(-42.7046 8.3918 -1.13889e-14)
(-45.6759 7.52901 1.46945e-16)
(-46.0919 6.38463 -2.51577e-14)
(-43.632 4.92585 -7.48761e-14)
(-38.021 2.79195 2.46533e-14)
(-29.8169 -0.878369 1.33164e-14)
(-21.9645 -5.19905 -1.92301e-14)
(4.40038 40.5886 -1.62318e-17)
(3.45095 39.4954 -7.83801e-17)
(2.41954 38.156 -8.94357e-17)
(1.31975 36.5599 -2.06759e-16)
(0.257336 34.7345 4.25636e-16)
(-0.740691 32.644 4.57713e-17)
(-1.61052 30.3063 -2.25805e-15)
(-2.26895 27.8257 -1.02231e-15)
(-2.66437 25.2894 -7.46658e-17)
(-2.77849 22.7434 0)
(-2.61225 20.2488 -1.60991e-15)
(-2.17333 17.8644 1.91382e-15)
(-1.47998 15.6144 -2.25199e-15)
(-0.558096 13.5163 -1.32576e-15)
(0.562381 11.588 1.56064e-15)
(1.85542 9.83741 1.78594e-15)
(3.28412 8.26894 7.67394e-15)
(4.83244 6.87298 -1.8061e-15)
(6.48414 5.65302 -3.35893e-15)
(8.21484 4.61166 0)
(10.001 3.74203 -5.55157e-15)
(11.8273 3.03279 -4.4422e-15)
(13.6846 2.47844 -2.04302e-17)
(15.5594 2.07575 -5.23948e-16)
(17.4259 1.82273 -2.25904e-16)
(19.2582 1.70942 3.55227e-15)
(21.043 1.72153 -9.05149e-17)
(22.7748 1.84562 7.53245e-16)
(24.4485 2.06933 1.65019e-16)
(26.0679 2.37624 1.01444e-15)
(27.6413 2.76177 -5.00197e-18)
(29.1753 3.2111 -6.13202e-15)
(30.6868 3.71764 -4.84384e-15)
(32.2015 4.28027 -3.95262e-15)
(33.7657 4.91448 -9.0722e-17)
(35.4099 5.64934 3.60725e-17)
(37.3495 6.54924 -3.02314e-15)
(39.2626 7.9048 1.77634e-15)
(42.9594 9.88141 6.3306e-15)
(6.41868 40.525 -2.36287e-18)
(7.28738 41.4879 6.2584e-18)
(8.20734 42.4582 6.341e-17)
(9.16664 43.4248 -3.18228e-16)
(10.109 44.3329 1.88681e-16)
(11.0629 45.2329 -2.48038e-16)
(12.0128 46.1256 6.2183e-16)
(12.9475 46.9921 0)
(13.8742 47.776 3.91099e-16)
(14.7541 48.4696 9.582e-18)
(15.5821 49.5967 -3.95474e-16)
(16.5007 51.9419 -1.26334e-15)
(17.4225 54.3788 -4.12013e-16)
(16.7874 51.4739 0)
(10.6236 40.6016 0)
(2.55816 31.8394 0)
(-1.50407 27.4727 0)
(-4.85573 21.1124 -2.60179e-15)
(-8.5639 11.8651 3.38576e-15)
(-11.8037 0.910872 4.46977e-15)
(-11.7996 -10.3094 -3.19417e-15)
(-10.5631 -19.6726 1.61862e-15)
(-8.75673 -24.1421 -1.06452e-15)
(-5.70561 -22.8157 -7.61212e-17)
(-3.95344 -12.1692 -4.13393e-17)
(-1.89538 1.37419 1.02071e-15)
(-9.60686 10.466 1.23159e-16)
(-17.8965 14.9232 0)
(-21.4463 14.6037 0)
(-25.6541 12.6284 -7.73574e-17)
(-31.64 11.0438 0)
(-37.7339 9.94043 8.23148e-15)
(-42.7412 8.9069 -1.09737e-14)
(-45.7391 7.73879 -2.53153e-14)
(-46.235 6.28943 4.73614e-14)
(-43.907 4.56264 3.56287e-14)
(-38.5394 2.2305 -2.322e-14)
(-30.7838 -1.49271 -2.57882e-14)
(-23.594 -5.71012 1.85741e-14)
(5.58218 39.5368 0)
(4.73053 38.4632 2.37005e-17)
(3.80444 37.1609 1.46244e-16)
(2.81602 35.6267 -7.91379e-16)
(1.86171 33.8935 7.17738e-16)
(0.959814 31.9272 -5.71935e-16)
(0.166356 29.7427 -7.02811e-17)
(-0.445669 27.4387 8.20554e-16)
(-0.831434 25.095 1.05722e-15)
(-0.975606 22.7463 0)
(-0.878088 20.443 7.86842e-16)
(-0.543193 18.2347 -2.69819e-15)
(0.0163922 16.1363 5.33855e-15)
(0.783281 14.16 1.25115e-15)
(1.73608 12.3206 -2.91813e-15)
(2.85777 10.6271 -3.30569e-15)
(4.12347 9.08323 -3.3809e-15)
(5.52231 7.68942 0)
(7.03669 6.45447 0)
(8.64508 5.38214 0)
(10.3263 4.47038 5.02625e-15)
(12.0641 3.71369 0)
(13.8466 3.10825 -3.61441e-15)
(15.6586 2.65204 -4.78492e-16)
(17.474 2.34337 -3.39943e-15)
(19.2661 2.17565 -3.08721e-15)
(21.0203 2.13603 0)
(22.7293 2.2126 -6.20502e-16)
(24.387 2.3929 -1.70468e-16)
(25.9956 2.66184 3.17069e-17)
(27.562 3.01383 3.34696e-15)
(29.0922 3.4361 -9.64889e-18)
(30.6016 3.92115 4.62542e-15)
(32.1145 4.46813 -3.67897e-15)
(33.6752 5.09179 0)
(35.3132 5.82426 -4.04065e-17)
(37.2273 6.72996 -8.40976e-17)
(39.1219 8.11095 -1.69449e-15)
(42.5534 10.1046 2.59855e-17)
(7.50735 39.5876 9.36353e-18)
(8.31586 40.5448 0)
(9.17901 41.5227 -4.23918e-17)
(10.0765 42.5019 1.02219e-16)
(10.9574 43.4287 -9.65254e-17)
(11.8531 44.3536 2.41773e-16)
(12.7495 45.2646 -2.85475e-16)
(13.6329 46.1635 -2.97161e-16)
(14.5101 47.0575 0)
(15.3602 47.8679 -3.94446e-16)
(16.1274 48.6565 -4.06439e-16)
(16.8326 50.1125 3.82373e-16)
(17.7142 53.1083 1.21099e-15)
(18.6571 55.1958 4.67819e-16)
(16.5226 50.5744 -1.51069e-15)
(10.3905 41.3073 -1.3929e-15)
(5.39399 33.6957 1.34543e-15)
(2.03607 26.3975 1.17505e-15)
(-1.22121 16.6599 -7.26102e-16)
(-4.6013 4.6338 1.09306e-15)
(-5.21956 -7.97044 2.43328e-15)
(-5.21953 -18.7156 3.46929e-16)
(-5.82694 -24.1321 -1.50821e-16)
(-4.75922 -23.5272 -7.4946e-16)
(-5.71414 -12.8088 0)
(-5.30576 2.5382 -7.64613e-16)
(-12.7192 12.3603 -2.15243e-16)
(-18.3118 16.0368 -1.79188e-16)
(-21.2944 15.3686 -8.19903e-16)
(-25.8255 13.61 4.23007e-15)
(-31.7975 12.0554 2.67647e-15)
(-37.7913 10.7537 2.25099e-16)
(-42.7524 9.43537 -1.12824e-16)
(-45.77 7.94667 0)
(-46.3423 6.18271 -2.27254e-14)
(-44.157 4.18321 0)
(-39.0563 1.66013 0)
(-31.7498 -2.09599 1.2698e-14)
(-25.0658 -6.18003 -1.40981e-16)
(6.73529 38.6086 -3.40099e-17)
(5.95335 37.5579 1.33055e-16)
(5.10615 36.2924 -1.69996e-17)
(4.20455 34.8121 1.591e-16)
(3.33587 33.1586 -7.46697e-16)
(2.51317 31.2955 6.26125e-16)
(1.78425 29.2379 9.92917e-17)
(1.21445 27.0815 -7.8916e-16)
(0.842997 24.8993 -9.6662e-16)
(0.681858 22.7183 -1.15291e-15)
(0.730907 20.5814 -2.8719e-15)
(0.987553 18.5304 0)
(1.44195 16.5729 -2.01854e-15)
(2.08209 14.715 -3.50289e-17)
(2.89304 12.9695 0)
(3.86512 11.3423 -2.93521e-15)
(4.98395 9.83745 -1.43843e-15)
(6.24243 8.46105 -1.38779e-15)
(7.62417 7.22443 5.19948e-15)
(9.11165 6.13303 4.8478e-15)
(10.6863 5.18945 -5.5748e-16)
(12.3323 4.39258 4.12813e-15)
(14.0362 3.74159 9.71093e-16)
(15.7818 3.23578 -4.37691e-16)
(17.5422 2.87453 2.9494e-15)
(19.2904 2.65419 1.83064e-16)
(21.0103 2.56397 0)
(22.6934 2.59324 0)
(24.3324 2.73008 -3.08251e-17)
(25.9277 2.96049 8.36906e-17)
(27.4851 3.2782 -3.19806e-15)
(29.0098 3.67224 -8.25179e-18)
(30.5158 4.13471 4.51596e-15)
(32.0258 4.66522 3.46208e-15)
(33.5817 5.27789 6.94864e-17)
(35.2121 6.00737 -2.61881e-17)
(37.0988 6.9181 5.64274e-15)
(38.971 8.3176 1.2556e-15)
(42.1572 10.3226 -2.29113e-17)
(8.54128 38.7497 4.87718e-18)
(9.29399 39.6999 0)
(10.1009 40.6816 5.74417e-18)
(10.9438 41.6681 0)
(11.7783 42.6045 -1.71549e-16)
(12.6338 43.54 1.5592e-16)
(13.4959 44.4652 2.26322e-16)
(14.3482 45.3761 2.87845e-16)
(15.1952 46.3029 0)
(16.0317 47.2368 -3.04264e-16)
(16.8296 48.1205 4.04125e-16)
(17.5416 49.1241 -7.87666e-16)
(18.2806 51.2523 -3.70084e-16)
(19.6345 54.8461 -3.95717e-16)
(20.4341 55.7181 9.38656e-16)
(17.9499 50.2337 1.19785e-15)
(13.663 41.4718 -1.60489e-15)
(9.99198 32.357 -2.10104e-15)
(6.87395 21.7577 0)
(3.62601 8.85355 9.18266e-16)
(2.19093 -4.94533 -1.95205e-15)
(0.930625 -16.7848 4.71773e-16)
(-2.08707 -23.027 9.79765e-17)
(-3.05998 -23.1922 2.00054e-15)
(-6.72097 -12.826 -1.52213e-16)
(-8.08351 3.93428 1.63256e-16)
(-14.43 13.9029 1.87555e-16)
(-18.2198 16.906 1.92287e-16)
(-21.2394 16.2037 6.88988e-16)
(-26.0204 14.6716 -1.96376e-15)
(-31.9231 13.0981 -2.3481e-15)
(-37.7994 11.5859 -1.43758e-14)
(-42.7029 9.96892 1.88923e-14)
(-45.7266 8.15389 -3.4428e-16)
(-46.366 6.06447 2.24714e-14)
(-44.3248 3.78739 -7.34259e-16)
(-39.5071 1.07807 3.76452e-16)
(-32.6622 -2.6977 -1.90982e-16)
(-26.3987 -6.63169 1.7464e-14)
(7.82424 37.7844 1.85933e-17)
(7.10374 36.7552 -6.68233e-17)
(6.32289 35.5238 1.53137e-16)
(5.49419 34.0924 0)
(4.69793 32.5066 4.65302e-16)
(3.9419 30.7325 0)
(3.26883 28.7832 0)
(2.73808 26.7518 0)
(2.3833 24.7072 1.91322e-15)
(2.21402 22.6703 -1.17778e-15)
(2.22938 20.6787 1.34286e-15)
(2.42668 18.768 0)
(2.79796 16.9397 0)
(3.33457 15.195 -2.22761e-15)
(4.02614 13.5447 0)
(4.8694 11.9895 2.68783e-15)
(5.8575 10.5336 4.31878e-17)
(6.98582 9.187 0)
(8.24118 7.96047 -3.54379e-15)
(9.6108 6.86122 -5.51205e-15)
(11.079 5.89566 -4.04919e-15)
(12.6309 5.06642 -3.77702e-15)
(14.2533 4.37593 6.882e-15)
(15.9292 3.82473 0)
(17.6312 3.41465 2.70048e-15)
(19.3317 3.14408 2.79813e-15)
(21.014 3.00497 1.19378e-15)
(22.6679 2.98739 0)
(24.2853 3.08106 -1.20167e-16)
(25.865 3.27226 -8.50171e-16)
(27.4112 3.55522 2.95995e-15)
(28.9286 3.91971 -6.82067e-18)
(30.4297 4.35894 -4.07052e-15)
(31.9354 4.87202 3.14845e-15)
(33.4854 5.47312 2.27334e-17)
(35.1067 6.19863 6.20394e-17)
(36.9641 7.11365 -5.57684e-15)
(38.8109 8.52433 -1.16465e-15)
(41.7657 10.5336 -8.4713e-15)
(9.53694 37.9917 1.13305e-18)
(10.2436 38.9323 -1.64301e-17)
(11.0055 39.9118 0)
(11.8047 40.8985 2.84708e-17)
(12.5984 41.8375 0)
(13.4185 42.7811 0)
(14.2488 43.7132 1.88941e-17)
(15.0767 44.6309 2.62011e-16)
(15.9097 45.5632 5.55689e-16)
(16.7445 46.5306 1.2726e-15)
(17.5818 47.5338 6.84753e-16)
(18.4051 48.5371 7.44322e-16)
(19.1924 49.9384 0)
(20.4475 52.8944 1.31994e-15)
(22.5246 56.2811 -4.24513e-16)
(23.5176 55.6194 0)
(22.0068 49.1803 1.40604e-15)
(19.1184 39.3751 1.85239e-15)
(16.0378 27.5962 0)
(12.7716 13.7954 3.0743e-15)
(10.351 -1.02021 -3.75064e-15)
(7.68103 -13.732 0)
(2.41798 -20.6749 -1.52682e-16)
(-0.704341 -21.6819 -4.00719e-18)
(-6.70067 -12.3618 7.44566e-17)
(-9.76339 5.41296 1.03472e-15)
(-14.9809 15.1202 -5.91059e-18)
(-17.8857 17.6767 -2.27222e-17)
(-21.2269 17.1337 -3.33831e-17)
(-26.1751 15.7918 5.18741e-17)
(-31.9767 14.1625 2.54766e-15)
(-37.7273 12.4316 1.3201e-14)
(-42.5671 10.5078 3.94072e-16)
(-45.5868 8.35393 -2.27682e-14)
(-46.2798 5.92954 -2.06683e-14)
(-44.3725 3.37213 -3.22684e-14)
(-39.8403 0.481246 -2.17477e-14)
(-33.469 -3.30291 4.15526e-16)
(-27.6168 -7.07442 -1.71165e-14)
(8.86549 37.0404 -5.09879e-17)
(8.19464 36.0352 -2.23123e-16)
(7.46924 34.8361 4.69335e-16)
(6.7012 33.4487 0)
(5.96507 31.9243 9.29072e-16)
(5.26634 30.2269 0)
(4.64217 28.371 -6.63184e-16)
(4.14645 26.4476 3.00666e-15)
(3.80936 24.5215 -2.66063e-15)
(3.63766 22.6101 0)
(3.62954 20.7457 2.58375e-15)
(3.78175 18.96 3.03995e-15)
(4.08724 17.2494 0)
(4.53932 15.612 -4.15045e-15)
(5.13047 14.0551 1.17012e-15)
(5.86392 12.5747 -1.16124e-15)
(6.73681 11.1753 1.15952e-15)
(7.74565 9.86752 2.1963e-15)
(8.88259 8.66079 -2.75174e-18)
(10.1387 7.56403 2.93017e-15)
(11.5017 6.586 9.64464e-16)
(12.9588 5.73264 -8.64094e-16)
(14.4975 5.00862 -3.16236e-15)
(16.1009 4.41713 2.87664e-15)
(17.7413 3.96203 -2.34387e-15)
(19.3909 3.6442 -2.758e-15)
(21.0321 3.45793 -1.11297e-15)
(22.6537 3.39465 -1.51408e-17)
(24.2465 3.44533 1.27151e-16)
(25.808 3.59736 7.97405e-16)
(27.3409 3.84499 1.32795e-18)
(28.849 4.17921 -5.36639e-18)
(30.3435 4.59415 3.97924e-15)
(31.8435 5.0889 -3.16623e-15)
(33.3861 5.67763 6.32027e-17)
(34.9966 6.39814 -3.16146e-15)
(36.8231 7.31571 2.69304e-15)
(38.6406 8.73178 0)
(41.3819 10.741 8.15164e-15)
(10.4905 37.2999 9.97617e-18)
(11.1574 38.2287 0)
(11.8798 39.202 0)
(12.6433 40.1874 -7.62172e-17)
(13.4012 41.1247 -2.58927e-17)
(14.1907 42.0666 0)
(14.9976 42.9996 0)
(15.808 43.918 -9.06894e-16)
(16.6331 44.8471 -2.60475e-17)
(17.4754 45.805 -2.25684e-17)
(18.3452 46.8291 -1.65775e-15)
(19.2692 47.9139 -3.88688e-16)
(20.2282 49.0765 7.70036e-16)
(21.4255 51.0212 -6.95098e-18)
(23.6327 54.3337 0)
(26.5547 56.606 0)
(28.3108 54.0902 -3.77244e-15)
(27.9062 46.126 -8.6497e-16)
(25.8225 34.2127 9.32417e-16)
(22.607 19.7375 -2.66656e-15)
(19.0514 4.17821 6.94494e-15)
(14.7462 -9.27632 2.23213e-15)
(7.46071 -17.0386 -1.40063e-15)
(2.1173 -18.9932 -9.46276e-16)
(-5.73345 -11.5652 1.93474e-16)
(-10.2961 6.91417 -8.25344e-16)
(-14.6999 16.1237 -7.48136e-17)
(-17.4342 18.4696 2.19162e-17)
(-21.1936 18.1693 -2.00254e-17)
(-26.2458 16.9627 1.32797e-16)
(-31.935 15.2493 1.19021e-16)
(-37.5633 13.2866 -6.51691e-15)
(-42.3368 11.0534 -1.19619e-16)
(-45.3388 8.54851 -6.85903e-18)
(-46.0667 5.78437 0)
(-44.2782 2.93994 3.06756e-14)
(-40.0219 -0.130788 2.07639e-14)
(-34.128 -3.91729 0)
(-28.7096 -7.51192 0)
(9.85887 36.3655 0)
(9.2306 35.3825 2.17674e-16)
(8.55199 34.2148 -7.63349e-16)
(7.83555 32.8685 -3.805e-16)
(7.15118 31.3982 -8.68897e-16)
(6.50104 29.7695 0)
(5.91966 27.9959 0)
(5.45615 26.1665 -1.41371e-15)
(5.13684 24.3441 1.69852e-15)
(4.96656 22.5424 0)
(4.94236 20.7904 -1.24213e-15)
(5.06017 19.1161 -1.5047e-15)
(5.31329 17.5129 1.72883e-15)
(5.69614 15.9758 2.0376e-15)
(6.20472 14.508 -4.16476e-15)
(6.84464 13.1035 0)
(7.61551 11.7659 -1.02176e-15)
(8.51609 10.5035 -4.53246e-18)
(9.54308 9.325 4.6794e-15)
(10.6913 8.23965 -9.46517e-16)
(11.9517 7.25793 8.93154e-16)
(13.3142 6.38815 -7.70768e-16)
(14.7679 5.63716 1.08429e-15)
(16.2967 5.01067 -5.64727e-15)
(17.8729 4.51477 -2.14227e-15)
(19.4685 4.15311 2.09758e-15)
(21.0654 3.92193 -1.32914e-16)
(22.6514 3.81448 0)
(24.2168 3.82287 -1.05049e-16)
(25.7575 3.9359 7.0299e-16)
(27.2747 4.14777 -1.2667e-15)