# Probe 0 (-15.819 -1.832 0.025)
# Probe 1 (-5.938 4.179 0.025)
#       Probe             0             1
#        Time
           50        8.1316       5.57383
           51        8.1316       5.57383
           52        8.1316       5.57383
           53        8.1316       5.57383
           54        8.1316       5.57383
           55        8.1316       5.57383
           56        8.1316       5.57383
           57        8.1316       5.57383
           58        8.1316       5.57383
           59        8.1316       5.57383
           60        8.1316       5.57383
           61        8.1316       5.57383
           62        8.1316       5.57383
           63        8.1316       5.57383
           64        8.1316       5.57383
           65        8.1316       5.57383
           66        8.1316       5.57383
           67        8.1316       5.57383
           68        8.1316       5.57383
           69        8.1316       5.57383
           70        8.1316       5.57383
           71        8.1316       5.57383
           72        8.1316       5.57383
           73        8.1316       5.57383
           74        8.1316       5.57383
           75        8.1316       5.57383
           76        8.1316       5.57383
           77        8.1316       5.57383
           78        8.1316       5.57383
           79        8.1316       5.57383
           80        8.1316       5.57383
           81        8.1316       5.57383
           82        8.1316       5.57383
           83        8.1316       5.57383
           84        8.1316       5.57383
           85        8.1316       5.57383
           86        8.1316       5.57383
           87        8.1316       5.57383
           88        8.1316       5.57383
           89        8.1316       5.57383
           90        8.1316       5.57383
           91        8.1316       5.57383
           92        8.1316       5.57383
           93        8.1316       5.57383
           94        8.1316       5.57383
           95        8.1316       5.57383
           96        8.1316       5.57383
           97        8.1316       5.57383
           98        8.1316       5.57383
           99        8.1316       5.57383
          100       4.07189       22.7663
